# vtk DataFile Version 4.0
vtk output
ASCII
DATASET UNSTRUCTURED_GRID
POINTS 582 float
1.0000000e+01 1.0000000e+01 0.0000000e+00 
1.0000000e+01 1.0000000e+01 1.0000000e+00 
1.0000000e+01 1.0000000e+01 2.0000000e+00 
1.0000000e+01 1.0000000e+01 3.0000000e+00 
1.0000000e+01 1.0000000e+01 4.0000000e+00 
1.0000000e+01 1.0000000e+01 5.0000000e+00 
1.0000000e+01 1.0000000e+01 6.0000000e+00 
1.0000000e+01 1.0000000e+01 7.0000000e+00 
1.0000000e+01 1.0000000e+01 8.0000000e+00 
1.0000000e+01 1.0000000e+01 9.0000000e+00 
1.0000000e+01 1.0000000e+01 1.0000000e+01 
1.0000000e+01 1.0000000e+01 1.1000000e+01 
1.0000000e+01 1.0000000e+01 1.2000000e+01 
1.0000000e+01 1.0000000e+01 1.3000000e+01 
1.0000000e+01 1.0000000e+01 1.4000000e+01 
1.0000000e+01 1.0000000e+01 1.5000000e+01 
1.0000000e+01 1.0000000e+01 1.6000000e+01 
1.0000000e+01 1.0000000e+01 1.7000000e+01 
1.0000000e+01 1.0000000e+01 1.8000000e+01 
1.0000000e+01 1.0000000e+01 1.9000000e+01 
1.0000000e+01 -1.0000000e+01 0.0000000e+00 
-1.0000000e+01 1.0000000e+01 0.0000000e+00 
1.0000000e+01 1.0000000e+01 2.0000000e+01 
1.0000000e+01 -1.0000000e+01 1.0000000e+00 
-1.0000000e+01 1.0000000e+01 1.0000000e+00 
1.0000000e+01 -1.0000000e+01 2.0000000e+00 
-1.0000000e+01 1.0000000e+01 2.0000000e+00 
1.0000000e+01 -1.0000000e+01 3.0000000e+00 
-1.0000000e+01 1.0000000e+01 3.0000000e+00 
1.0000000e+01 -1.0000000e+01 4.0000000e+00 
-1.0000000e+01 1.0000000e+01 4.0000000e+00 
-1.0000000e+01 1.0000000e+01 5.0000000e+00 
1.0000000e+01 -1.0000000e+01 5.0000000e+00 
-1.0000000e+01 1.0000000e+01 6.0000000e+00 
1.0000000e+01 -1.0000000e+01 6.0000000e+00 
1.0000000e+01 1.0000000e+01 2.1000000e+01 
1.0000000e+01 -1.0000000e+01 7.0000000e+00 
-1.0000000e+01 1.0000000e+01 7.0000000e+00 
1.0000000e+01 -1.0000000e+01 8.0000000e+00 
-1.0000000e+01 1.0000000e+01 8.0000000e+00 
1.0000000e+01 -1.0000000e+01 9.0000000e+00 
-1.0000000e+01 1.0000000e+01 9.0000000e+00 
1.0000000e+01 1.0000000e+01 2.2000000e+01 
-1.0000000e+01 1.0000000e+01 1.0000000e+01 
1.0000000e+01 -1.0000000e+01 1.0000000e+01 
1.0000000e+01 -1.0000000e+01 1.1000000e+01 
-1.0000000e+01 1.0000000e+01 1.1000000e+01 
1.0000000e+01 1.0000000e+01 2.3000000e+01 
-1.0000000e+01 1.0000000e+01 1.2000000e+01 
1.0000000e+01 -1.0000000e+01 1.2000000e+01 
-1.0000000e+01 1.0000000e+01 1.3000000e+01 
1.0000000e+01 -1.0000000e+01 1.3000000e+01 
1.0000000e+01 1.0000000e+01 2.4000000e+01 
-1.0000000e+01 1.0000000e+01 1.4000000e+01 
1.0000000e+01 -1.0000000e+01 1.4000000e+01 
1.0000000e+01 1.0000000e+01 2.5000000e+01 
-1.0000000e+01 1.0000000e+01 1.5000000e+01 
1.0000000e+01 -1.0000000e+01 1.5000000e+01 
9.0000000e+00 1.0000000e+01 2.5000000e+01 
1.0000000e+01 9.0000000e+00 2.5000000e+01 
9.1116455e+00 8.5833333e+00 2.5000000e+01 
8.2679492e+00 9.0000000e+00 2.5000000e+01 
1.0000000e+01 8.0000000e+00 2.5000000e+01 
8.0000000e+00 1.0000000e+01 2.5000000e+01 
8.2679492e+00 8.0000000e+00 2.5000000e+01 
9.1339746e+00 7.5000000e+00 2.5000000e+01 
7.0000000e+00 1.0000000e+01 2.5000000e+01 
1.0000000e+01 7.0000000e+00 2.5000000e+01 
7.3349365e+00 8.5833333e+00 2.5000000e+01 
8.2679492e+00 7.0000000e+00 2.5000000e+01 
7.4019238e+00 7.5000000e+00 2.5000000e+01 
9.1339746e+00 6.5000000e+00 2.5000000e+01 
6.5191458e+00 9.0333333e+00 2.5000000e+01 
6.0000000e+00 1.0000000e+01 2.5000000e+01 
1.0000000e+01 6.0000000e+00 2.5000000e+01 
6.5358984e+00 8.0000000e+00 2.5000000e+01 
8.2679492e+00 6.0000000e+00 2.5000000e+01 
7.4019238e+00 6.5000000e+00 2.5000000e+01 
5.7248942e+00 8.5833333e+00 2.5000000e+01 
6.5358984e+00 7.0000000e+00 2.5000000e+01 
9.1339746e+00 5.5000000e+00 2.5000000e+01 
5.0000000e+00 1.0000000e+01 2.5000000e+01 
1.0000000e+01 5.0000000e+00 2.5000000e+01 
5.6698730e+00 7.5000000e+00 2.5000000e+01 
7.4019238e+00 5.5000000e+00 2.5000000e+01 
8.2679492e+00 5.0000000e+00 2.5000000e+01 
6.5358984e+00 6.0000000e+00 2.5000000e+01 
4.8038476e+00 9.0000000e+00 2.5000000e+01 
-1.0000000e+01 1.0000000e+01 1.6000000e+01 
9.1339746e+00 4.5000000e+00 2.5000000e+01 
1.0000000e+01 -1.0000000e+01 1.6000000e+01 
5.6698730e+00 6.5000000e+00 2.5000000e+01 
4.8038476e+00 8.0000000e+00 2.5000000e+01 
4.0000000e+00 1.0000000e+01 2.5000000e+01 
1.0000000e+01 4.0000000e+00 2.5000000e+01 
4.8038476e+00 7.0000000e+00 2.5000000e+01 
7.4019238e+00 4.5000000e+00 2.5000000e+01 
6.5358984e+00 5.0000000e+00 2.5000000e+01 
8.2679492e+00 4.0000000e+00 2.5000000e+01 
5.6698730e+00 5.5000000e+00 2.5000000e+01 
3.9378222e+00 8.5000000e+00 2.5000000e+01 
9.1339746e+00 3.5000000e+00 2.5000000e+01 
3.9378222e+00 7.5000000e+00 2.5000000e+01 
4.8038476e+00 6.0000000e+00 2.5000000e+01 
6.5358984e+00 4.0000000e+00 2.5000000e+01 
5.6698730e+00 4.5000000e+00 2.5000000e+01 
7.4019238e+00 3.5000000e+00 2.5000000e+01 
1.0000000e+01 3.0000000e+00 2.5000000e+01 
3.0000000e+00 1.0000000e+01 2.5000000e+01 
3.9378222e+00 6.5000000e+00 2.5000000e+01 
3.0717968e+00 9.0000000e+00 2.5000000e+01 
8.2679492e+00 3.0000000e+00 2.5000000e+01 
4.8038476e+00 5.0000000e+00 2.5000000e+01 
3.0717968e+00 8.0000000e+00 2.5000000e+01 
3.0717968e+00 7.0000000e+00 2.5000000e+01 
9.1339746e+00 2.5000000e+00 2.5000000e+01 
3.9378222e+00 5.5000000e+00 2.5000000e+01 
5.6698730e+00 3.5000000e+00 2.5000000e+01 
6.5358984e+00 3.0000000e+00 2.5000000e+01 
4.8038476e+00 4.0000000e+00 2.5000000e+01 
7.4019238e+00 2.5000000e+00 2.5000000e+01 
2.1714761e+00 8.5833333e+00 2.5000000e+01 
3.0717968e+00 6.0000000e+00 2.5000000e+01 
1.0000000e+01 2.0000000e+00 2.5000000e+01 
-1.0000000e+01 1.0000000e+01 1.7000000e+01 
2.0000000e+00 1.0000000e+01 2.5000000e+01 
1.0000000e+01 -1.0000000e+01 1.7000000e+01 
2.2057714e+00 7.5000000e+00 2.5000000e+01 
3.9378222e+00 4.5000000e+00 2.5000000e+01 
8.2679492e+00 2.0000000e+00 2.5000000e+01 
3.0717968e+00 5.0000000e+00 2.5000000e+01 
2.2057714e+00 6.5000000e+00 2.5000000e+01 
9.1339746e+00 1.5000000e+00 2.5000000e+01 
5.6698730e+00 2.5000000e+00 2.5000000e+01 
1.3397460e+00 9.0000000e+00 2.5000000e+01 
4.8038476e+00 3.0000000e+00 2.5000000e+01 
6.5358984e+00 2.0000000e+00 2.5000000e+01 
1.3397460e+00 8.0000000e+00 2.5000000e+01 
3.9378222e+00 3.5000000e+00 2.5000000e+01 
7.4019238e+00 1.5000000e+00 2.5000000e+01 
2.2057714e+00 5.5000000e+00 2.5000000e+01 
1.0000000e+01 1.0000000e+00 2.5000000e+01 
1.0000000e+00 1.0000000e+01 2.5000000e+01 
1.3397460e+00 7.0000000e+00 2.5000000e+01 
3.0717968e+00 4.0000000e+00 2.5000000e+01 
8.1339746e+00 7.0640910e-01 2.5000000e+01 
1.3397460e+00 6.0000000e+00 2.5000000e+01 
2.2057714e+00 4.5000000e+00 2.5000000e+01 
4.8038476e+00 2.0000000e+00 2.5000000e+01 
5.6698730e+00 1.5000000e+00 2.5000000e+01 
9.1339746e+00 5.0000000e-01 2.5000000e+01 
4.8122897e-01 8.7857143e+00 2.5000000e+01 
3.9378222e+00 2.5000000e+00 2.5000000e+01 
6.5358984e+00 1.0000000e+00 2.5000000e+01 
4.7372056e-01 7.5000000e+00 2.5000000e+01 
3.0717968e+00 3.0000000e+00 2.5000000e+01 
1.0000000e+01 -1.0000000e+01 1.8000000e+01 
-1.0000000e+01 1.0000000e+01 1.8000000e+01 
1.3397460e+00 5.0000000e+00 2.5000000e+01 
1.0000000e+01 0.0000000e+00 2.5000000e+01 
-0.0000000e+00 1.0000000e+01 2.5000000e+01 
7.0000000e+00 3.9230485e-01 2.5000000e+01 
4.7372056e-01 6.5000000e+00 2.5000000e+01 
2.2057714e+00 3.5000000e+00 2.5000000e+01 
6.0000000e+00 3.9230485e-01 2.5000000e+01 
3.9378222e+00 1.5000000e+00 2.5000000e+01 
-4.2527022e-01 9.0738095e+00 2.5000000e+01 
8.8348967e+00 -4.1223732e-01 2.5000000e+01 
4.7372056e-01 5.5000000e+00 2.5000000e+01 
1.3397460e+00 4.0000000e+00 2.5000000e+01 
-3.9230485e-01 8.0000000e+00 2.5000000e+01 
3.0717968e+00 2.0000000e+00 2.5000000e+01 
4.9159347e+00 6.9102408e-01 2.5000000e+01 
7.5763279e+00 -4.1257841e-01 2.5000000e+01 
-3.9230485e-01 7.0000000e+00 2.5000000e+01 
2.2057714e+00 2.5000000e+00 2.5000000e+01 
4.7372056e-01 4.5000000e+00 2.5000000e+01 
1.0000000e+01 -1.0000000e+00 2.5000000e+01 
-1.0000000e+00 1.0000000e+01 2.5000000e+01 
6.5000000e+00 -4.7372056e-01 2.5000000e+01 
-3.9230485e-01 6.0000000e+00 2.5000000e+01 
1.3397460e+00 3.0000000e+00 2.5000000e+01 
-1.2152752e+00 8.5833333e+00 2.5000000e+01 
4.0000000e+00 3.9230485e-01 2.5000000e+01 
5.4859891e+00 -4.2393402e-01 2.5000000e+01 
9.0000000e+00 -1.3397460e+00 2.5000000e+01 
8.0000000e+00 -1.3397460e+00 2.5000000e+01 
-1.2583302e+00 7.5000000e+00 2.5000000e+01 
-3.9230485e-01 5.0000000e+00 2.5000000e+01 
4.7372056e-01 3.5000000e+00 2.5000000e+01 
2.2057714e+00 1.5000000e+00 2.5000000e+01 
3.0601660e+00 7.0640910e-01 2.5000000e+01 
-1.0000000e+01 1.0000000e+01 1.9000000e+01 
1.0000000e+01 -1.0000000e+01 1.9000000e+01 
7.0000000e+00 -1.3397460e+00 2.5000000e+01 
-1.2583302e+00 6.5000000e+00 2.5000000e+01 
1.3397460e+00 2.0000000e+00 2.5000000e+01 
4.5000000e+00 -4.7372056e-01 2.5000000e+01 
-3.9230485e-01 4.0000000e+00 2.5000000e+01 
1.0000000e+01 -2.0000000e+00 2.5000000e+01 
-2.0000000e+00 1.0000000e+01 2.5000000e+01 
6.0000000e+00 -1.3397460e+00 2.5000000e+01 
-1.2583302e+00 5.5000000e+00 2.5000000e+01 
4.7372056e-01 2.5000000e+00 2.5000000e+01 
-2.1243557e+00 9.0000000e+00 2.5000000e+01 
8.5833333e+00 -2.1714761e+00 2.5000000e+01 
-2.1243557e+00 8.0000000e+00 2.5000000e+01 
3.5000000e+00 -4.7372056e-01 2.5000000e+01 
5.0000000e+00 -1.3397460e+00 2.5000000e+01 
2.0837163e+00 4.0453021e-01 2.5000000e+01 
7.5000000e+00 -2.2057714e+00 2.5000000e+01 
-2.1243557e+00 7.0000000e+00 2.5000000e+01 
-1.2583302e+00 4.5000000e+00 2.5000000e+01 
-3.9230485e-01 3.0000000e+00 2.5000000e+01 
6.5000000e+00 -2.2057714e+00 2.5000000e+01 
-2.1243557e+00 6.0000000e+00 2.5000000e+01 
4.7372056e-01 1.5000000e+00 2.5000000e+01 
1.1526442e+00 7.6368308e-01 2.5000000e+01 
4.0000000e+00 -1.3397460e+00 2.5000000e+01 
2.5000000e+00 -4.7372056e-01 2.5000000e+01 
-1.2583302e+00 3.5000000e+00 2.5000000e+01 
1.0000000e+01 -3.0000000e+00 2.5000000e+01 
-3.0000000e+00 1.0000000e+01 2.5000000e+01 
5.5000000e+00 -2.2057714e+00 2.5000000e+01 
-2.9190998e+00 8.3267949e+00 2.5000000e+01 
-3.5300401e-01 1.9655371e+00 2.5000000e+01 
9.0000000e+00 -3.0717968e+00 2.5000000e+01 
-2.1243557e+00 5.0000000e+00 2.5000000e+01 
[...]
POINT_DATA 582
FIELD FieldData 4
DISPLACEMENT 3 582  float
0.0000000e+00 0.0000000e+00 0.0000000e+00 
-8.2249211e-04 8.0826075e-04 0.0000000e+00 
-3.1998323e-03 3.1444665e-03 0.0000000e+00 
-6.9968165e-03 6.8757524e-03 0.0000000e+00 
-1.2078240e-02 1.1869254e-02 0.0000000e+00 
-1.8308900e-02 1.7992106e-02 0.0000000e+00 
-2.5553591e-02 2.5111443e-02 0.0000000e+00 
-3.3677108e-02 3.3094402e-02 0.0000000e+00 
-4.2544249e-02 4.1808118e-02 0.0000000e+00 
-5.2019809e-02 5.1119724e-02 0.0000000e+00 
-6.1968584e-02 6.0896358e-02 0.0000000e+00 
-7.2255369e-02 7.1005153e-02 0.0000000e+00 
-8.2744960e-02 8.1313246e-02 0.0000000e+00 
-9.3302153e-02 9.1687770e-02 0.0000000e+00 
-1.0379174e-01 1.0199586e-01 0.0000000e+00 
-1.1407853e-01 1.1210466e-01 0.0000000e+00 
-1.2402730e-01 1.2188129e-01 0.0000000e+00 
-1.3350286e-01 1.3119290e-01 0.0000000e+00 
-1.4237000e-01 1.3990661e-01 0.0000000e+00 
-1.5049352e-01 1.4788957e-01 0.0000000e+00 
0.0000000e+00 0.0000000e+00 0.0000000e+00 
0.0000000e+00 0.0000000e+00 0.0000000e+00 
-1.5773821e-01 1.5500891e-01 0.0000000e+00 
8.0826075e-04 8.2249211e-04 0.0000000e+00 
-8.0826075e-04 -8.2249211e-04 0.0000000e+00 
3.1444665e-03 3.1998323e-03 0.0000000e+00 
-3.1444665e-03 -3.1998323e-03 0.0000000e+00 
6.8757524e-03 6.9968165e-03 0.0000000e+00 
-6.8757524e-03 -6.9968165e-03 0.0000000e+00 
1.1869254e-02 1.2078240e-02 0.0000000e+00 
-1.1869254e-02 -1.2078240e-02 0.0000000e+00 
-1.7992106e-02 -1.8308900e-02 0.0000000e+00 
1.7992106e-02 1.8308900e-02 0.0000000e+00 
-2.5111443e-02 -2.5553591e-02 0.0000000e+00 
2.5111443e-02 2.5553591e-02 0.0000000e+00 
-1.6396887e-01 1.6113176e-01 0.0000000e+00 
3.3094402e-02 3.3677108e-02 0.0000000e+00 
-3.3094402e-02 -3.3677108e-02 0.0000000e+00 
4.1808118e-02 4.2544249e-02 0.0000000e+00 
-4.1808118e-02 -4.2544249e-02 0.0000000e+00 
5.1119724e-02 5.2019809e-02 0.0000000e+00 
-5.1119724e-02 -5.2019809e-02 0.0000000e+00 
-1.6905030e-01 1.6612526e-01 0.0000000e+00 
-6.0896358e-02 -6.1968584e-02 0.0000000e+00 
6.0896358e-02 6.1968584e-02 0.0000000e+00 
7.1005153e-02 7.2255369e-02 0.0000000e+00 
-7.1005153e-02 -7.2255369e-02 0.0000000e+00 
-1.7284728e-01 1.6985655e-01 0.0000000e+00 
-8.1313246e-02 -8.2744960e-02 0.0000000e+00 
8.1313246e-02 8.2744960e-02 0.0000000e+00 
-9.1687770e-02 -9.3302153e-02 0.0000000e+00 
9.1687770e-02 9.3302153e-02 0.0000000e+00 
-1.7522462e-01 1.7219276e-01 0.0000000e+00 
-1.0199586e-01 -1.0379174e-01 0.0000000e+00 
1.0199586e-01 1.0379174e-01 0.0000000e+00 
-1.7604711e-01 1.7300102e-01 0.0000000e+00 
-1.1210466e-01 -1.1407853e-01 0.0000000e+00 
1.1210466e-01 1.1407853e-01 0.0000000e+00 
-1.7589481e-01 1.5554861e-01 0.0000000e+00 
-1.5859471e-01 1.7315332e-01 0.0000000e+00 
-1.5118757e-01 1.5771286e-01 0.0000000e+00 
-1.5833091e-01 1.4292487e-01 0.0000000e+00 
-1.4114230e-01 1.7330563e-01 0.0000000e+00 
-1.7574250e-01 1.3809620e-01 0.0000000e+00 
-1.4087850e-01 1.4307717e-01 0.0000000e+00 
-1.3228420e-01 1.5826755e-01 0.0000000e+00 
-1.7559020e-01 1.2064380e-01 0.0000000e+00 
-1.2368989e-01 1.7345793e-01 0.0000000e+00 
-1.5091697e-01 1.2670501e-01 0.0000000e+00 
-1.2342609e-01 1.4322948e-01 0.0000000e+00 
-1.3202040e-01 1.2803910e-01 0.0000000e+00 
-1.1483179e-01 1.5841986e-01 0.0000000e+00 
-1.5864630e-01 1.1239896e-01 0.0000000e+00 
-1.7543789e-01 1.0319139e-01 0.0000000e+00 
-1.0623749e-01 1.7361024e-01 0.0000000e+00 
-1.4061470e-01 1.1284872e-01 0.0000000e+00 
-1.0597369e-01 1.4338178e-01 0.0000000e+00 
-1.1456799e-01 1.2819140e-01 0.0000000e+00 
-1.5067175e-01 9.8605896e-02 0.0000000e+00 
-1.2316229e-01 1.1300102e-01 0.0000000e+00 
-9.7379384e-02 1.5857216e-01 0.0000000e+00 
-1.7528559e-01 8.5738984e-02 0.0000000e+00 
-8.8785081e-02 1.7376254e-01 0.0000000e+00 
-1.3175660e-01 9.7810641e-02 0.0000000e+00 
-9.7115584e-02 1.2834371e-01 0.0000000e+00 
-8.8521281e-02 1.4353409e-01 0.0000000e+00 
-1.0570989e-01 1.1315333e-01 0.0000000e+00 
-1.5780331e-01 8.2467957e-02 0.0000000e+00 
-1.2188129e-01 -1.2402730e-01 0.0000000e+00 
-7.9926978e-02 1.5872447e-01 0.0000000e+00 
1.2188129e-01 1.2402730e-01 0.0000000e+00 
-1.1430419e-01 9.7962946e-02 0.0000000e+00 
-1.4035090e-01 8.2620262e-02 0.0000000e+00 
-1.7513328e-01 6.8286577e-02 0.0000000e+00 
-7.1332674e-02 1.7391484e-01 0.0000000e+00 
-1.2289849e-01 8.2772566e-02 0.0000000e+00 
-7.9663178e-02 1.2849601e-01 0.0000000e+00 
-8.8257481e-02 1.1330563e-01 0.0000000e+00 
-7.1068874e-02 1.4368639e-01 0.0000000e+00 
-9.6851785e-02 9.8115251e-02 0.0000000e+00 
-1.4894520e-01 6.7429882e-02 0.0000000e+00 
-6.2474571e-02 1.5887677e-01 0.0000000e+00 
-1.3149280e-01 6.7582187e-02 0.0000000e+00 
-1.0544609e-01 8.2924871e-02 0.0000000e+00 
-7.0805075e-02 1.1345794e-01 0.0000000e+00 
-7.9399378e-02 9.8267556e-02 0.0000000e+00 
-6.2210771e-02 1.2864832e-01 0.0000000e+00 
-5.3880268e-02 1.7406715e-01 0.0000000e+00 
-1.7498098e-01 5.0834171e-02 0.0000000e+00 
-1.1404039e-01 6.7734492e-02 0.0000000e+00 
-1.5753951e-01 5.2239502e-02 0.0000000e+00 
-5.3616468e-02 1.4383870e-01 0.0000000e+00 
-8.7993681e-02 8.3077176e-02 0.0000000e+00 
-1.4008710e-01 5.2391807e-02 0.0000000e+00 
-1.2263469e-01 5.2544112e-02 0.0000000e+00 
-4.5022165e-02 1.5902907e-01 0.0000000e+00 
-9.6587985e-02 6.7886796e-02 0.0000000e+00 
-6.1946972e-02 9.8419861e-02 0.0000000e+00 
-5.3352668e-02 1.1361024e-01 0.0000000e+00 
-7.0541275e-02 8.3229481e-02 0.0000000e+00 
-4.4758365e-02 1.2880062e-01 0.0000000e+00 
-1.5013055e-01 3.6590201e-02 0.0000000e+00 
-1.0518229e-01 5.2696417e-02 0.0000000e+00 
-3.6427861e-02 1.7421945e-01 0.0000000e+00 
-1.3119290e-01 -1.3350286e-01 0.0000000e+00 
-1.7482867e-01 3.3381764e-02 0.0000000e+00 
1.3119290e-01 1.3350286e-01 0.0000000e+00 
-1.3122900e-01 3.7353732e-02 0.0000000e+00 
-7.9135578e-02 6.8039101e-02 0.0000000e+00 
-3.6164062e-02 1.4399100e-01 0.0000000e+00 
-8.7729882e-02 5.2848721e-02 0.0000000e+00 
-1.1377659e-01 3.7506037e-02 0.0000000e+00 
-2.7569758e-02 1.5918138e-01 0.0000000e+00 
-4.4494565e-02 9.8572166e-02 0.0000000e+00 
-1.5727571e-01 2.2011047e-02 0.0000000e+00 
-5.3088869e-02 8.3381786e-02 0.0000000e+00 
-3.5900262e-02 1.1376255e-01 0.0000000e+00 
-1.3982330e-01 2.2163352e-02 0.0000000e+00 
-6.1683172e-02 6.8191406e-02 0.0000000e+00 
-2.7305959e-02 1.2895293e-01 0.0000000e+00 
-9.6324185e-02 3.7658342e-02 0.0000000e+00 
-1.8975455e-02 1.7437176e-01 0.0000000e+00 
-1.7467637e-01 1.5929358e-02 0.0000000e+00 
-1.2237089e-01 2.2315657e-02 0.0000000e+00 
-7.0277475e-02 5.3001026e-02 0.0000000e+00 
-1.3567383e-02 1.4184984e-01 0.0000000e+00 
-1.0491849e-01 2.2467962e-02 0.0000000e+00 
-7.8871779e-02 3.7810647e-02 0.0000000e+00 
-3.5636462e-02 8.3534091e-02 0.0000000e+00 
-2.7042159e-02 9.8724470e-02 0.0000000e+00 
-1.0117352e-02 1.5933368e-01 0.0000000e+00 
-1.5340515e-01 7.0604967e-03 0.0000000e+00 
-4.4230765e-02 6.8343711e-02 0.0000000e+00 
-1.8447855e-02 1.1391485e-01 0.0000000e+00 
-1.3096520e-01 7.1252774e-03 0.0000000e+00 
-5.2825069e-02 5.3153331e-02 0.0000000e+00 
1.3990661e-01 1.4237000e-01 0.0000000e+00 
-1.3990661e-01 -1.4237000e-01 0.0000000e+00 
-8.7466082e-02 2.2620267e-02 0.0000000e+00 
-1.5230484e-03 1.7452406e-01 0.0000000e+00 
-1.7452406e-01 -1.5230484e-03 0.0000000e+00 
-7.9127975e-03 1.2210710e-01 0.0000000e+00 
-1.1351279e-01 7.2775822e-03 0.0000000e+00 
-6.1419372e-02 3.7962951e-02 0.0000000e+00 
-7.7604927e-03 1.0465469e-01 0.0000000e+00 
-2.6778359e-02 6.8496016e-02 0.0000000e+00 
-1.5829504e-01 -8.8039738e-03 0.0000000e+00 
5.8489357e-03 1.5425299e-01 0.0000000e+00 
-9.6060385e-02 7.4298871e-03 0.0000000e+00 
-7.0013676e-02 2.2772572e-02 0.0000000e+00 
-1.3955950e-01 -8.0651024e-03 0.0000000e+00 
-3.5372662e-02 5.3305636e-02 0.0000000e+00 
-1.2808754e-02 8.5689644e-02 0.0000000e+00 
6.0465746e-03 1.3228799e-01 0.0000000e+00 
-1.2210710e-01 -7.9127975e-03 0.0000000e+00 
-4.3966966e-02 3.8115256e-02 0.0000000e+00 
-7.8607979e-02 7.5821919e-03 0.0000000e+00 
1.5929358e-02 1.7467637e-01 0.0000000e+00 
-1.7437176e-01 -1.8975455e-02 0.0000000e+00 
7.2775822e-03 1.1351279e-01 0.0000000e+00 
-1.0465469e-01 -7.7604927e-03 0.0000000e+00 
-5.2561269e-02 2.2924877e-02 0.0000000e+00 
-1.4961473e-01 -2.2516760e-02 0.0000000e+00 
-7.4558830e-03 6.9749876e-02 0.0000000e+00 
6.5631261e-03 9.5808279e-02 0.0000000e+00 
2.2011047e-02 1.5727571e-01 0.0000000e+00 
2.2163352e-02 1.3982330e-01 0.0000000e+00 
-1.3070140e-01 -2.3103177e-02 0.0000000e+00 
-8.7202282e-02 -7.6081878e-03 0.0000000e+00 
-6.1155572e-02 7.7344968e-03 0.0000000e+00 
-2.6514559e-02 3.8267561e-02 0.0000000e+00 
-1.2794617e-02 5.3299670e-02 0.0000000e+00 
-1.4788957e-01 -1.5049352e-01 0.0000000e+00 
1.4788957e-01 1.5049352e-01 0.0000000e+00 
2.2315657e-02 1.2237089e-01 0.0000000e+00 
-1.1324899e-01 -2.2950872e-02 0.0000000e+00 
-3.5108863e-02 2.3077181e-02 0.0000000e+00 
7.5821919e-03 7.8607979e-02 0.0000000e+00 
-6.9749876e-02 -7.4558830e-03 0.0000000e+00 
3.3381764e-02 1.7482867e-01 0.0000000e+00 
-1.7421945e-01 -3.6427861e-02 0.0000000e+00 
2.2467962e-02 1.0491849e-01 0.0000000e+00 
-9.5796586e-02 -2.2798568e-02 0.0000000e+00 
-4.3703166e-02 7.8868016e-03 0.0000000e+00 
-1.5674811e-01 -3.8445862e-02 0.0000000e+00 
3.6590201e-02 1.5013055e-01 0.0000000e+00 
-1.3929570e-01 -3.8293557e-02 0.0000000e+00 
7.7344968e-03 6.1155572e-02 0.0000000e+00 
2.2620267e-02 8.7466082e-02 0.0000000e+00 
-7.3773858e-03 3.6304252e-02 0.0000000e+00 
3.7353732e-02 1.3122900e-01 0.0000000e+00 
-1.2184330e-01 -3.8141252e-02 0.0000000e+00 
-7.8344179e-02 -2.2646263e-02 0.0000000e+00 
-5.2297469e-02 -7.3035781e-03 0.0000000e+00 
3.7506037e-02 1.1377659e-01 0.0000000e+00 
-1.0439089e-01 -3.7988947e-02 0.0000000e+00 
-2.6250760e-02 8.0391065e-03 0.0000000e+00 
-1.3503661e-02 2.0000102e-02 0.0000000e+00 
2.2772572e-02 7.0013676e-02 0.0000000e+00 
7.8868016e-03 4.3703166e-02 0.0000000e+00 
-6.0891773e-02 -2.2493958e-02 0.0000000e+00 
5.0834171e-02 1.7498098e-01 0.0000000e+00 
-1.7406715e-01 -5.3880268e-02 0.0000000e+00 
3.7658342e-02 9.6324185e-02 0.0000000e+00 
-1.4487802e-01 -5.2213527e-02 0.0000000e+00 
-3.4249588e-02 -6.4601303e-03 0.0000000e+00 
5.2239502e-02 1.5753951e-01 0.0000000e+00 
-8.6938483e-02 -3.7836642e-02 0.0000000e+00 
5.2391807e-02 1.4008710e-01 0.0000000e+00 
-1.3043760e-01 -5.3331632e-02 0.0000000e+00 
0.0000000e+00 0.0000000e+00 0.0000000e+00 
-1.5500891e-01 -1.5773821e-01 0.0000000e+00 
1.5500891e-01 1.5773821e-01 0.0000000e+00 
8.2249211e-04 -8.0826075e-04 0.0000000e+00 
2.2924877e-02 5.2561269e-02 0.0000000e+00 
3.1998323e-03 -3.1444665e-03 0.0000000e+00 
3.7810647e-02 7.8871779e-02 0.0000000e+00 
5.2544112e-02 1.2263469e-01 0.0000000e+00 
-1.1298519e-01 -5.3179327e-02 0.0000000e+00 
8.0391065e-03 2.6250760e-02 0.0000000e+00 
-6.9486076e-02 -3.7684338e-02 0.0000000e+00 
-4.3439366e-02 -2.2341653e-02 0.0000000e+00 
-1.5887677e-01 -6.2474571e-02 0.0000000e+00 
6.9968165e-03 -6.8757524e-03 0.0000000e+00 
5.2696417e-02 1.0518229e-01 0.0000000e+00 
-1.3819809e-02 -2.8521103e-03 0.0000000e+00 
-9.5532786e-02 -5.3027022e-02 0.0000000e+00 
1.2078240e-02 -1.1869254e-02 0.0000000e+00 
3.7962951e-02 6.1419372e-02 0.0000000e+00 
2.3077181e-02 3.5108863e-02 0.0000000e+00 
5.2848721e-02 8.7729882e-02 0.0000000e+00 
-1.3903190e-01 -6.8522012e-02 0.0000000e+00 
-5.2033670e-02 -3.7532033e-02 0.0000000e+00 
-1.7391484e-01 -7.1332674e-02 0.0000000e+00 
6.8286577e-02 1.7513328e-01 0.0000000e+00 
6.7429882e-02 1.4894520e-01 0.0000000e+00 
5.9451050e-03 8.7675341e-03 0.0000000e+00 
-7.8080379e-02 -5.2874717e-02 0.0000000e+00 
-2.5986960e-02 -2.2189348e-02 0.0000000e+00 
1.8308900e-02 -1.7992106e-02 0.0000000e+00 
6.7582187e-02 1.3149280e-01 0.0000000e+00 
-1.2157950e-01 -6.8369707e-02 0.0000000e+00 
3.8115256e-02 4.3966966e-02 0.0000000e+00 
6.7734492e-02 1.1404039e-01 0.0000000e+00 
5.3001026e-02 7.0277475e-02 0.0000000e+00 
-1.0412709e-01 -6.8217402e-02 0.0000000e+00 
2.3229486e-02 1.7656456e-02 0.0000000e+00 
-6.0627973e-02 -5.2722413e-02 0.0000000e+00 
-3.4581263e-02 -3.7379728e-02 0.0000000e+00 
2.5553591e-02 -2.5111443e-02 0.0000000e+00 
6.7886796e-02 9.6587985e-02 0.0000000e+00 
-1.5296407e-01 -8.1761095e-02 0.0000000e+00 
1.6113176e-01 1.6396887e-01 0.0000000e+00 
-1.6113176e-01 -1.6396887e-01 0.0000000e+00 
-8.6674683e-02 -6.8065097e-02 0.0000000e+00 
-6.5584178e-03 -2.1647132e-02 0.0000000e+00 
5.3153331e-02 5.2825069e-02 0.0000000e+00 
8.3437161e-03 -8.6540533e-03 0.0000000e+00 
8.2467957e-02 1.5780331e-01 0.0000000e+00 
3.8267561e-02 2.6514559e-02 0.0000000e+00 
-1.3017380e-01 -8.3560087e-02 0.0000000e+00 
8.2620262e-02 1.4035090e-01 0.0000000e+00 
3.3677108e-02 -3.3094402e-02 0.0000000e+00 
6.8039101e-02 7.9135578e-02 0.0000000e+00 
-4.3175567e-02 -5.2570108e-02 0.0000000e+00 
-1.7376254e-01 -8.8785081e-02 0.0000000e+00 
8.5738984e-02 1.7528559e-01 0.0000000e+00 
-6.9222276e-02 -6.7912792e-02 0.0000000e+00 
-1.7128857e-02 -3.7227423e-02 0.0000000e+00 
8.2772566e-02 1.2289849e-01 0.0000000e+00 
2.3381791e-02 2.0404980e-04 0.0000000e+00 
-1.1272139e-01 -8.3407782e-02 0.0000000e+00 
5.3305636e-02 3.5372662e-02 0.0000000e+00 
8.2924871e-02 1.0544609e-01 0.0000000e+00 
6.8191406e-02 6.1683172e-02 0.0000000e+00 
-9.5268986e-02 -8.3255477e-02 0.0000000e+00 
4.2544249e-02 -4.1808118e-02 0.0000000e+00 
3.8419866e-02 9.0621529e-03 0.0000000e+00 
8.6837800e-03 -2.4309495e-02 0.0000000e+00 
-2.5723160e-02 -5.2417803e-02 0.0000000e+00 
-5.1769870e-02 -6.7760487e-02 0.0000000e+00 
-1.5829035e-01 -9.7949092e-02 0.0000000e+00 
8.3077176e-02 8.7993681e-02 0.0000000e+00 
-1.3876810e-01 -9.8750466e-02 0.0000000e+00 
-7.7816580e-02 -8.3103172e-02 0.0000000e+00 
3.2354966e-04 -3.7075118e-02 0.0000000e+00 
9.8605896e-02 1.5067175e-01 0.0000000e+00 
2.3534096e-02 -1.7248357e-02 0.0000000e+00 
6.8343711e-02 4.4230765e-02 0.0000000e+00 
9.7810641e-02 1.3175660e-01 0.0000000e+00 
5.3457941e-02 1.7920256e-02 0.0000000e+00 
-1.2131570e-01 -9.8598162e-02 0.0000000e+00 
3.6553733e-02 -5.8188867e-03 0.0000000e+00 
8.3229481e-02 7.0541275e-02 0.0000000e+00 
-3.4317463e-02 -6.7608183e-02 0.0000000e+00 
-1.7361024e-01 -1.0623749e-01 0.0000000e+00 
5.2019809e-02 -5.1119724e-02 0.0000000e+00 
1.0319139e-01 1.7543789e-01 0.0000000e+00 
9.7962946e-02 1.1430419e-01 0.0000000e+00 
-1.0386329e-01 -9.8445857e-02 0.0000000e+00 
-6.0364173e-02 -8.2950867e-02 0.0000000e+00 
-8.2707537e-03 -5.2265498e-02 0.0000000e+00 
-1.6612526e-01 -1.6905030e-01 0.0000000e+00 
1.6612526e-01 1.6905030e-01 0.0000000e+00 
9.8115251e-02 9.6851785e-02 0.0000000e+00 
6.8496016e-02 2.6778359e-02 0.0000000e+00 
-8.6410883e-02 -9.8293552e-02 0.0000000e+00 
1.7775956e-02 -3.6922813e-02 0.0000000e+00 
8.3381786e-02 5.3088869e-02 0.0000000e+00 
5.3610246e-02 4.6784953e-04 0.0000000e+00 
-1.5234683e-01 -1.1421133e-01 0.0000000e+00 
-4.2911767e-02 -8.2798562e-02 0.0000000e+00 
-1.6865057e-02 -6.7455878e-02 0.0000000e+00 
1.1239896e-01 1.5864630e-01 0.0000000e+00 
6.1968584e-02 -6.0896358e-02 0.0000000e+00 
9.8267556e-02 7.9399378e-02 0.0000000e+00 
-1.2991000e-01 -1.1378854e-01 0.0000000e+00 
1.1284872e-01 1.4061470e-01 0.0000000e+00 
-6.8958477e-02 -9.8141247e-02 0.0000000e+00 
9.1816527e-03 -5.2113193e-02 0.0000000e+00 
1.1300102e-01 1.2316229e-01 0.0000000e+00 
-1.1245759e-01 -1.1363624e-01 0.0000000e+00 
4.3822666e-02 -2.1580129e-02 0.0000000e+00 
8.3534091e-02 3.5636462e-02 0.0000000e+00 
6.8648321e-02 9.3259526e-03 0.0000000e+00 
9.8419861e-02 6.1946972e-02 0.0000000e+00 
-2.5459360e-02 -8.2646258e-02 0.0000000e+00 
1.2064380e-01 1.7559020e-01 0.0000000e+00 
-1.7345793e-01 -1.2368989e-01 0.0000000e+00 
1.1315333e-01 1.0570989e-01 0.0000000e+00 
-9.5005186e-02 -1.1348393e-01 0.0000000e+00 
3.5228363e-02 -3.6770509e-02 0.0000000e+00 
-5.1506070e-02 -9.7988942e-02 0.0000000e+00 
5.8734938e-04 -6.7303573e-02 0.0000000e+00 
7.2255369e-02 -7.1005153e-02 0.0000000e+00 
1.1330563e-01 8.8257481e-02 0.0000000e+00 
8.3686396e-02 1.8184056e-02 0.0000000e+00 
-1.5595671e-01 -1.2913123e-01 0.0000000e+00 
-7.7552780e-02 -1.1333163e-01 0.0000000e+00 
2.6634059e-02 -5.1960888e-02 0.0000000e+00 
9.8572166e-02 4.4494565e-02 0.0000000e+00 
1.2670501e-01 1.5091697e-01 0.0000000e+00 
-1.3850430e-01 -1.2897892e-01 0.0000000e+00 
1.6985655e-01 1.7284728e-01 0.0000000e+00 
-1.6985655e-01 -1.7284728e-01 0.0000000e+00 
6.8800625e-02 -8.1264538e-03 0.0000000e+00 
-3.4053664e-02 -9.7836637e-02 0.0000000e+00 
-8.0069540e-03 -8.2493953e-02 0.0000000e+00 
-1.2105190e-01 -1.2882662e-01 0.0000000e+00 
6.1275072e-02 -2.1427824e-02 0.0000000e+00 
1.2803910e-01 1.3202040e-01 0.0000000e+00 
1.1345794e-01 7.0805075e-02 0.0000000e+00 
-6.0100374e-02 -1.1317932e-01 0.0000000e+00 
1.8039756e-02 -6.7151268e-02 0.0000000e+00 
1.2819140e-01 1.1456799e-01 0.0000000e+00 
-1.0359949e-01 -1.2867431e-01 0.0000000e+00 
5.2680769e-02 -3.6618204e-02 0.0000000e+00 
9.8724470e-02 2.7042159e-02 0.0000000e+00 
8.2744960e-02 -8.1313246e-02 0.0000000e+00 
1.1361024e-01 5.3352668e-02 0.0000000e+00 
1.2834371e-01 9.7115584e-02 0.0000000e+00 
-1.6601257e-02 -9.7684332e-02 0.0000000e+00 
-1.7330563e-01 -1.4114230e-01 0.0000000e+00 
1.3809620e-01 1.7574250e-01 0.0000000e+00 
-8.6147083e-02 -1.2852201e-01 0.0000000e+00 
4.4086466e-02 -5.1808583e-02 0.0000000e+00 
-4.2647967e-02 -1.1302702e-01 0.0000000e+00 
9.4454525e-03 -8.2341648e-02 0.0000000e+00 
-1.4855771e-01 -1.4363942e-01 0.0000000e+00 
8.7321782e-02 -6.0851394e-03 0.0000000e+00 
1.2849601e-01 7.9663178e-02 0.0000000e+00 
1.4292487e-01 1.5833091e-01 0.0000000e+00 
9.8876775e-02 9.5897523e-03 0.0000000e+00 
-6.8694677e-02 -1.2836970e-01 0.0000000e+00 
3.5492162e-02 -6.6998963e-02 0.0000000e+00 
-1.2964620e-01 -1.4401700e-01 0.0000000e+00 
7.8727479e-02 -2.1275519e-02 0.0000000e+00 
1.1376255e-01 3.5900262e-02 0.0000000e+00 
1.4307717e-01 1.4087850e-01 0.0000000e+00 
1.4322948e-01 1.2342609e-01 0.0000000e+00 
-1.1219379e-01 -1.4386469e-01 0.0000000e+00 
8.5114911e-04 -9.7532028e-02 0.0000000e+00 
-2.5195561e-02 -1.1287471e-01 0.0000000e+00 
7.0133175e-02 -3.6465899e-02 0.0000000e+00 
9.3302153e-02 -9.1687770e-02 0.0000000e+00 
1.2864832e-01 6.2210771e-02 0.0000000e+00 
-5.1242270e-02 -1.2821740e-01 0.0000000e+00 
2.6897859e-02 -8.2189343e-02 0.0000000e+00 
1.4338178e-01 1.0597369e-01 0.0000000e+00 
-9.4741387e-02 -1.4371239e-01 0.0000000e+00 
6.1538872e-02 -5.1656279e-02 0.0000000e+00 
1.7219276e-01 1.7522462e-01 0.0000000e+00 
-1.7219276e-01 -1.7522462e-01 0.0000000e+00 
1.4353409e-01 8.8521281e-02 0.0000000e+00 
1.1377468e-01 1.3996903e-02 0.0000000e+00 
1.2880062e-01 4.4758365e-02 0.0000000e+00 
-7.7288980e-02 -1.4356008e-01 0.0000000e+00 
-7.7431542e-03 -1.1272241e-01 0.0000000e+00 
5.2944569e-02 -6.6846658e-02 0.0000000e+00 
-1.7315332e-01 -1.5859471e-01 0.0000000e+00 
1.5554861e-01 1.7589481e-01 0.0000000e+00 
-3.3789864e-02 -1.2806509e-01 0.0000000e+00 
-1.5569291e-01 -1.5935968e-01 0.0000000e+00 
1.8303556e-02 -9.7379723e-02 0.0000000e+00 
1.0533533e-01 -5.0621896e-03 0.0000000e+00 
-1.3824050e-01 -1.5920738e-01 0.0000000e+00 
9.6179885e-02 -2.1123214e-02 0.0000000e+00 
1.5771286e-01 1.5118757e-01 0.0000000e+00 
1.4368639e-01 7.1068874e-02 0.0000000e+00 
1.0379174e-01 -1.0199586e-01 0.0000000e+00 
-1.2078810e-01 -1.5905507e-01 0.0000000e+00 
8.7585582e-02 -3.6313594e-02 0.0000000e+00 
1.5826755e-01 1.3228420e-01 0.0000000e+00 
-5.9836574e-02 -1.4340778e-01 0.0000000e+00 
4.4350265e-02 -8.2037038e-02 0.0000000e+00 
1.2895293e-01 2.7305959e-02 0.0000000e+00 
1.5841986e-01 1.1483179e-01 0.0000000e+00 
7.8991278e-02 -5.1503974e-02 0.0000000e+00 
-1.6337458e-02 -1.2791279e-01 0.0000000e+00 
9.7092522e-03 -1.1257010e-01 0.0000000e+00 
1.4383870e-01 5.3616468e-02 0.0000000e+00 
1.5857216e-01 9.7379384e-02 0.0000000e+00 
-9.4597087e-02 -1.6024751e-01 0.0000000e+00 
-4.2384167e-02 -1.4325547e-01 0.0000000e+00 
3.5755962e-02 -9.7227418e-02 0.0000000e+00 
7.0396975e-02 -6.6694354e-02 0.0000000e+00 
1.2910523e-01 9.8535521e-03 0.0000000e+00 
1.5872447e-01 7.9926978e-02 0.0000000e+00 
-7.7144680e-02 -1.6009521e-01 0.0000000e+00 
1.2222659e-01 -5.7805297e-03 0.0000000e+00 
1.4399100e-01 3.6164062e-02 0.0000000e+00 
6.1802672e-02 -8.1884733e-02 0.0000000e+00 
1.1363229e-01 -2.0970909e-02 0.0000000e+00 