# vtk DataFile Version 4.0
vtk output
ASCII
DATASET UNSTRUCTURED_GRID
POINTS 582 float
1.0000000e+01 1.0000000e+01 0.0000000e+00 
1.0000000e+01 1.0000000e+01 1.0000000e+00 
1.0000000e+01 1.0000000e+01 2.0000000e+00 
1.0000000e+01 1.0000000e+01 3.0000000e+00 
1.0000000e+01 1.0000000e+01 4.0000000e+00 
1.0000000e+01 1.0000000e+01 5.0000000e+00 
1.0000000e+01 1.0000000e+01 6.0000000e+00 
1.0000000e+01 1.0000000e+01 7.0000000e+00 
1.0000000e+01 1.0000000e+01 8.0000000e+00 
1.0000000e+01 1.0000000e+01 9.0000000e+00 
1.0000000e+01 1.0000000e+01 1.0000000e+01 
1.0000000e+01 1.0000000e+01 1.1000000e+01 
1.0000000e+01 1.0000000e+01 1.2000000e+01 
1.0000000e+01 1.0000000e+01 1.3000000e+01 
1.0000000e+01 1.0000000e+01 1.4000000e+01 
1.0000000e+01 1.0000000e+01 1.5000000e+01 
1.0000000e+01 1.0000000e+01 1.6000000e+01 
1.0000000e+01 1.0000000e+01 1.7000000e+01 
1.0000000e+01 1.0000000e+01 1.8000000e+01 
1.0000000e+01 1.0000000e+01 1.9000000e+01 
1.0000000e+01 -1.0000000e+01 0.0000000e+00 
-1.0000000e+01 1.0000000e+01 0.0000000e+00 
1.0000000e+01 1.0000000e+01 2.0000000e+01 
1.0000000e+01 -1.0000000e+01 1.0000000e+00 
-1.0000000e+01 1.0000000e+01 1.0000000e+00 
1.0000000e+01 -1.0000000e+01 2.0000000e+00 
-1.0000000e+01 1.0000000e+01 2.0000000e+00 
1.0000000e+01 -1.0000000e+01 3.0000000e+00 
-1.0000000e+01 1.0000000e+01 3.0000000e+00 
1.0000000e+01 -1.0000000e+01 4.0000000e+00 
-1.0000000e+01 1.0000000e+01 4.0000000e+00 
-1.0000000e+01 1.0000000e+01 5.0000000e+00 
1.0000000e+01 -1.0000000e+01 5.0000000e+00 
-1.0000000e+01 1.0000000e+01 6.0000000e+00 
1.0000000e+01 -1.0000000e+01 6.0000000e+00 
1.0000000e+01 1.0000000e+01 2.1000000e+01 
1.0000000e+01 -1.0000000e+01 7.0000000e+00 
-1.0000000e+01 1.0000000e+01 7.0000000e+00 
1.0000000e+01 -1.0000000e+01 8.0000000e+00 
-1.0000000e+01 1.0000000e+01 8.0000000e+00 
1.0000000e+01 -1.0000000e+01 9.0000000e+00 
-1.0000000e+01 1.0000000e+01 9.0000000e+00 
1.0000000e+01 1.0000000e+01 2.2000000e+01 
-1.0000000e+01 1.0000000e+01 1.0000000e+01 
1.0000000e+01 -1.0000000e+01 1.0000000e+01 
1.0000000e+01 -1.0000000e+01 1.1000000e+01 
-1.0000000e+01 1.0000000e+01 1.1000000e+01 
1.0000000e+01 1.0000000e+01 2.3000000e+01 
-1.0000000e+01 1.0000000e+01 1.2000000e+01 
1.0000000e+01 -1.0000000e+01 1.2000000e+01 
-1.0000000e+01 1.0000000e+01 1.3000000e+01 
1.0000000e+01 -1.0000000e+01 1.3000000e+01 
1.0000000e+01 1.0000000e+01 2.4000000e+01 
-1.0000000e+01 1.0000000e+01 1.4000000e+01 
1.0000000e+01 -1.0000000e+01 1.4000000e+01 
1.0000000e+01 1.0000000e+01 2.5000000e+01 
-1.0000000e+01 1.0000000e+01 1.5000000e+01 
1.0000000e+01 -1.0000000e+01 1.5000000e+01 
9.0000000e+00 1.0000000e+01 2.5000000e+01 
1.0000000e+01 9.0000000e+00 2.5000000e+01 
9.1116455e+00 8.5833333e+00 2.5000000e+01 
8.2679492e+00 9.0000000e+00 2.5000000e+01 
1.0000000e+01 8.0000000e+00 2.5000000e+01 
8.0000000e+00 1.0000000e+01 2.5000000e+01 
8.2679492e+00 8.0000000e+00 2.5000000e+01 
9.1339746e+00 7.5000000e+00 2.5000000e+01 
7.0000000e+00 1.0000000e+01 2.5000000e+01 
1.0000000e+01 7.0000000e+00 2.5000000e+01 
7.3349365e+00 8.5833333e+00 2.5000000e+01 
8.2679492e+00 7.0000000e+00 2.5000000e+01 
7.4019238e+00 7.5000000e+00 2.5000000e+01 
9.1339746e+00 6.5000000e+00 2.5000000e+01 
6.5191458e+00 9.0333333e+00 2.5000000e+01 
6.0000000e+00 1.0000000e+01 2.5000000e+01 
1.0000000e+01 6.0000000e+00 2.5000000e+01 
6.5358984e+00 8.0000000e+00 2.5000000e+01 
8.2679492e+00 6.0000000e+00 2.5000000e+01 
7.4019238e+00 6.5000000e+00 2.5000000e+01 
5.7248942e+00 8.5833333e+00 2.5000000e+01 
6.5358984e+00 7.0000000e+00 2.5000000e+01 
9.1339746e+00 5.5000000e+00 2.5000000e+01 
5.0000000e+00 1.0000000e+01 2.5000000e+01 
1.0000000e+01 5.0000000e+00 2.5000000e+01 
5.6698730e+00 7.5000000e+00 2.5000000e+01 
7.4019238e+00 5.5000000e+00 2.5000000e+01 
8.2679492e+00 5.0000000e+00 2.5000000e+01 
6.5358984e+00 6.0000000e+00 2.5000000e+01 
4.8038476e+00 9.0000000e+00 2.5000000e+01 
-1.0000000e+01 1.0000000e+01 1.6000000e+01 
9.1339746e+00 4.5000000e+00 2.5000000e+01 
1.0000000e+01 -1.0000000e+01 1.6000000e+01 
5.6698730e+00 6.5000000e+00 2.5000000e+01 
4.8038476e+00 8.0000000e+00 2.5000000e+01 
4.0000000e+00 1.0000000e+01 2.5000000e+01 
1.0000000e+01 4.0000000e+00 2.5000000e+01 
4.8038476e+00 7.0000000e+00 2.5000000e+01 
7.4019238e+00 4.5000000e+00 2.5000000e+01 
6.5358984e+00 5.0000000e+00 2.5000000e+01 
8.2679492e+00 4.0000000e+00 2.5000000e+01 
5.6698730e+00 5.5000000e+00 2.5000000e+01 
3.9378222e+00 8.5000000e+00 2.5000000e+01 
9.1339746e+00 3.5000000e+00 2.5000000e+01 
3.9378222e+00 7.5000000e+00 2.5000000e+01 
4.8038476e+00 6.0000000e+00 2.5000000e+01 
6.5358984e+00 4.0000000e+00 2.5000000e+01 
5.6698730e+00 4.5000000e+00 2.5000000e+01 
7.4019238e+00 3.5000000e+00 2.5000000e+01 
1.0000000e+01 3.0000000e+00 2.5000000e+01 
3.0000000e+00 1.0000000e+01 2.5000000e+01 
3.9378222e+00 6.5000000e+00 2.5000000e+01 
3.0717968e+00 9.0000000e+00 2.5000000e+01 
8.2679492e+00 3.0000000e+00 2.5000000e+01 
4.8038476e+00 5.0000000e+00 2.5000000e+01 
3.0717968e+00 8.0000000e+00 2.5000000e+01 
3.0717968e+00 7.0000000e+00 2.5000000e+01 
9.1339746e+00 2.5000000e+00 2.5000000e+01 
3.9378222e+00 5.5000000e+00 2.5000000e+01 
5.6698730e+00 3.5000000e+00 2.5000000e+01 
6.5358984e+00 3.0000000e+00 2.5000000e+01 
4.8038476e+00 4.0000000e+00 2.5000000e+01 
7.4019238e+00 2.5000000e+00 2.5000000e+01 
2.1714761e+00 8.5833333e+00 2.5000000e+01 
3.0717968e+00 6.0000000e+00 2.5000000e+01 
1.0000000e+01 2.0000000e+00 2.5000000e+01 
-1.0000000e+01 1.0000000e+01 1.7000000e+01 
2.0000000e+00 1.0000000e+01 2.5000000e+01 
1.0000000e+01 -1.0000000e+01 1.7000000e+01 
2.2057714e+00 7.5000000e+00 2.5000000e+01 
3.9378222e+00 4.5000000e+00 2.5000000e+01 
8.2679492e+00 2.0000000e+00 2.5000000e+01 
3.0717968e+00 5.0000000e+00 2.5000000e+01 
2.2057714e+00 6.5000000e+00 2.5000000e+01 
9.1339746e+00 1.5000000e+00 2.5000000e+01 
5.6698730e+00 2.5000000e+00 2.5000000e+01 
1.3397460e+00 9.0000000e+00 2.5000000e+01 
4.8038476e+00 3.0000000e+00 2.5000000e+01 
6.5358984e+00 2.0000000e+00 2.5000000e+01 
1.3397460e+00 8.0000000e+00 2.5000000e+01 
3.9378222e+00 3.5000000e+00 2.5000000e+01 
7.4019238e+00 1.5000000e+00 2.5000000e+01 
2.2057714e+00 5.5000000e+00 2.5000000e+01 
1.0000000e+01 1.0000000e+00 2.5000000e+01 
1.0000000e+00 1.0000000e+01 2.5000000e+01 
1.3397460e+00 7.0000000e+00 2.5000000e+01 
3.0717968e+00 4.0000000e+00 2.5000000e+01 
8.1339746e+00 7.0640910e-01 2.5000000e+01 
1.3397460e+00 6.0000000e+00 2.5000000e+01 
2.2057714e+00 4.5000000e+00 2.5000000e+01 
4.8038476e+00 2.0000000e+00 2.5000000e+01 
5.6698730e+00 1.5000000e+00 2.5000000e+01 
9.1339746e+00 5.0000000e-01 2.5000000e+01 
4.8122897e-01 8.7857143e+00 2.5000000e+01 
3.9378222e+00 2.5000000e+00 2.5000000e+01 
6.5358984e+00 1.0000000e+00 2.5000000e+01 
4.7372056e-01 7.5000000e+00 2.5000000e+01 
3.0717968e+00 3.0000000e+00 2.5000000e+01 
1.0000000e+01 -1.0000000e+01 1.8000000e+01 
-1.0000000e+01 1.0000000e+01 1.8000000e+01 
1.3397460e+00 5.0000000e+00 2.5000000e+01 
1.0000000e+01 0.0000000e+00 2.5000000e+01 
-0.0000000e+00 1.0000000e+01 2.5000000e+01 
7.0000000e+00 3.9230485e-01 2.5000000e+01 
4.7372056e-01 6.5000000e+00 2.5000000e+01 
2.2057714e+00 3.5000000e+00 2.5000000e+01 
6.0000000e+00 3.9230485e-01 2.5000000e+01 
3.9378222e+00 1.5000000e+00 2.5000000e+01 
-4.2527022e-01 9.0738095e+00 2.5000000e+01 
8.8348967e+00 -4.1223732e-01 2.5000000e+01 
4.7372056e-01 5.5000000e+00 2.5000000e+01 
1.3397460e+00 4.0000000e+00 2.5000000e+01 
-3.9230485e-01 8.0000000e+00 2.5000000e+01 
3.0717968e+00 2.0000000e+00 2.5000000e+01 
4.9159347e+00 6.9102408e-01 2.5000000e+01 
7.5763279e+00 -4.1257841e-01 2.5000000e+01 
-3.9230485e-01 7.0000000e+00 2.5000000e+01 
2.2057714e+00 2.5000000e+00 2.5000000e+01 
4.7372056e-01 4.5000000e+00 2.5000000e+01 
1.0000000e+01 -1.0000000e+00 2.5000000e+01 
-1.0000000e+00 1.0000000e+01 2.5000000e+01 
6.5000000e+00 -4.7372056e-01 2.5000000e+01 
-3.9230485e-01 6.0000000e+00 2.5000000e+01 
1.3397460e+00 3.0000000e+00 2.5000000e+01 
-1.2152752e+00 8.5833333e+00 2.5000000e+01 
4.0000000e+00 3.9230485e-01 2.5000000e+01 
5.4859891e+00 -4.2393402e-01 2.5000000e+01 
9.0000000e+00 -1.3397460e+00 2.5000000e+01 
8.0000000e+00 -1.3397460e+00 2.5000000e+01 
-1.2583302e+00 7.5000000e+00 2.5000000e+01 
-3.9230485e-01 5.0000000e+00 2.5000000e+01 
4.7372056e-01 3.5000000e+00 2.5000000e+01 
2.2057714e+00 1.5000000e+00 2.5000000e+01 
3.0601660e+00 7.0640910e-01 2.5000000e+01 
-1.0000000e+01 1.0000000e+01 1.9000000e+01 
1.0000000e+01 -1.0000000e+01 1.9000000e+01 
7.0000000e+00 -1.3397460e+00 2.5000000e+01 
-1.2583302e+00 6.5000000e+00 2.5000000e+01 
1.3397460e+00 2.0000000e+00 2.5000000e+01 
4.5000000e+00 -4.7372056e-01 2.5000000e+01 
-3.9230485e-01 4.0000000e+00 2.5000000e+01 
1.0000000e+01 -2.0000000e+00 2.5000000e+01 
-2.0000000e+00 1.0000000e+01 2.5000000e+01 
6.0000000e+00 -1.3397460e+00 2.5000000e+01 
-1.2583302e+00 5.5000000e+00 2.5000000e+01 
4.7372056e-01 2.5000000e+00 2.5000000e+01 
-2.1243557e+00 9.0000000e+00 2.5000000e+01 
8.5833333e+00 -2.1714761e+00 2.5000000e+01 
-2.1243557e+00 8.0000000e+00 2.5000000e+01 
3.5000000e+00 -4.7372056e-01 2.5000000e+01 
5.0000000e+00 -1.3397460e+00 2.5000000e+01 
2.0837163e+00 4.0453021e-01 2.5000000e+01 
7.5000000e+00 -2.2057714e+00 2.5000000e+01 
-2.1243557e+00 7.0000000e+00 2.5000000e+01 
-1.2583302e+00 4.5000000e+00 2.5000000e+01 
-3.9230485e-01 3.0000000e+00 2.5000000e+01 
6.5000000e+00 -2.2057714e+00 2.5000000e+01 
-2.1243557e+00 6.0000000e+00 2.5000000e+01 
4.7372056e-01 1.5000000e+00 2.5000000e+01 
1.1526442e+00 7.6368308e-01 2.5000000e+01 
4.0000000e+00 -1.3397460e+00 2.5000000e+01 
2.5000000e+00 -4.7372056e-01 2.5000000e+01 
-1.2583302e+00 3.5000000e+00 2.5000000e+01 
1.0000000e+01 -3.0000000e+00 2.5000000e+01 
-3.0000000e+00 1.0000000e+01 2.5000000e+01 
5.5000000e+00 -2.2057714e+00 2.5000000e+01 
-2.9190998e+00 8.3267949e+00 2.5000000e+01 
-3.5300401e-01 1.9655371e+00 2.5000000e+01 
9.0000000e+00 -3.0717968e+00 2.5000000e+01 
-2.1243557e+00 5.0000000e+00 2.5000000e+01 
[...]
POINT_DATA 582
FIELD FieldData 4
DISPLACEMENT 3 582  float
0.0000000e+00 0.0000000e+00 0.0000000e+00 
0.0000000e+00 0.0000000e+00 0.0000000e+00 
0.0000000e+00 0.0000000e+00 0.0000000e+00 
0.0000000e+00 0.0000000e+00 0.0000000e+00 
0.0000000e+00 0.0000000e+00 0.0000000e+00 
0.0000000e+00 0.0000000e+00 0.0000000e+00 
0.0000000e+00 0.0000000e+00 0.0000000e+00 
0.0000000e+00 0.0000000e+00 0.0000000e+00 
0.0000000e+00 0.0000000e+00 0.0000000e+00 
0.0000000e+00 0.0000000e+00 0.0000000e+00 
0.0000000e+00 0.0000000e+00 0.0000000e+00 
0.0000000e+00 0.0000000e+00 0.0000000e+00 
0.0000000e+00 0.0000000e+00 0.0000000e+00 
0.0000000e+00 0.0000000e+00 0.0000000e+00 
0.0000000e+00 0.0000000e+00 0.0000000e+00 
0.0000000e+00 0.0000000e+00 0.0000000e+00 
0.0000000e+00 0.0000000e+00 0.0000000e+00 
0.0000000e+00 0.0000000e+00 0.0000000e+00 
0.0000000e+00 0.0000000e+00 0.0000000e+00 
0.0000000e+00 0.0000000e+00 0.0000000e+00 
0.0000000e+00 0.0000000e+00 0.0000000e+00 
0.0000000e+00 0.0000000e+00 0.0000000e+00 
0.0000000e+00 0.0000000e+00 0.0000000e+00 
0.0000000e+00 0.0000000e+00 0.0000000e+00 
0.0000000e+00 0.0000000e+00 0.0000000e+00 
0.0000000e+00 0.0000000e+00 0.0000000e+00 
0.0000000e+00 0.0000000e+00 0.0000000e+00 
0.0000000e+00 0.0000000e+00 0.0000000e+00 
0.0000000e+00 0.0000000e+00 0.0000000e+00 
0.0000000e+00 0.0000000e+00 0.0000000e+00 
0.0000000e+00 0.0000000e+00 0.0000000e+00 
0.0000000e+00 0.0000000e+00 0.0000000e+00 
0.0000000e+00 0.0000000e+00 0.0000000e+00 
0.0000000e+00 0.0000000e+00 0.0000000e+00 
0.0000000e+00 0.0000000e+00 0.0000000e+00 
0.0000000e+00 0.0000000e+00 0.0000000e+00 
0.0000000e+00 0.0000000e+00 0.0000000e+00 
0.0000000e+00 0.0000000e+00 0.0000000e+00 
0.0000000e+00 0.0000000e+00 0.0000000e+00 
0.0000000e+00 0.0000000e+00 0.0000000e+00 
0.0000000e+00 0.0000000e+00 0.0000000e+00 
0.0000000e+00 0.0000000e+00 0.0000000e+00 
0.0000000e+00 0.0000000e+00 0.0000000e+00 
0.0000000e+00 0.0000000e+00 0.0000000e+00 
0.0000000e+00 0.0000000e+00 0.0000000e+00 
0.0000000e+00 0.0000000e+00 0.0000000e+00 
0.0000000e+00 0.0000000e+00 0.0000000e+00 
0.0000000e+00 0.0000000e+00 0.0000000e+00 
0.0000000e+00 0.0000000e+00 0.0000000e+00 
0.0000000e+00 0.0000000e+00 0.0000000e+00 
0.0000000e+00 0.0000000e+00 0.0000000e+00 
0.0000000e+00 0.0000000e+00 0.0000000e+00 
0.0000000e+00 0.0000000e+00 0.0000000e+00 
0.0000000e+00 0.0000000e+00 0.0000000e+00 
0.0000000e+00 0.0000000e+00 0.0000000e+00 
0.0000000e+00 0.0000000e+00 0.0000000e+00 
0.0000000e+00 0.0000000e+00 0.0000000e+00 
0.0000000e+00 0.0000000e+00 0.0000000e+00 
0.0000000e+00 0.0000000e+00 0.0000000e+00 
0.0000000e+00 0.0000000e+00 0.0000000e+00 
0.0000000e+00 0.0000000e+00 0.0000000e+00 
0.0000000e+00 0.0000000e+00 0.0000000e+00 
0.0000000e+00 0.0000000e+00 0.0000000e+00 
0.0000000e+00 0.0000000e+00 0.0000000e+00 
0.0000000e+00 0.0000000e+00 0.0000000e+00 
0.0000000e+00 0.0000000e+00 0.0000000e+00 
0.0000000e+00 0.0000000e+00 0.0000000e+00 
0.0000000e+00 0.0000000e+00 0.0000000e+00 
0.0000000e+00 0.0000000e+00 0.0000000e+00 
0.0000000e+00 0.0000000e+00 0.0000000e+00 
0.0000000e+00 0.0000000e+00 0.0000000e+00 
0.0000000e+00 0.0000000e+00 0.0000000e+00 
0.0000000e+00 0.0000000e+00 0.0000000e+00 
0.0000000e+00 0.0000000e+00 0.0000000e+00 
0.0000000e+00 0.0000000e+00 0.0000000e+00 
0.0000000e+00 0.0000000e+00 0.0000000e+00 
0.0000000e+00 0.0000000e+00 0.0000000e+00 
0.0000000e+00 0.0000000e+00 0.0000000e+00 
0.0000000e+00 0.0000000e+00 0.0000000e+00 
0.0000000e+00 0.0000000e+00 0.0000000e+00 
0.0000000e+00 0.0000000e+00 0.0000000e+00 
0.0000000e+00 0.0000000e+00 0.0000000e+00 
0.0000000e+00 0.0000000e+00 0.0000000e+00 
0.0000000e+00 0.0000000e+00 0.0000000e+00 
0.0000000e+00 0.0000000e+00 0.0000000e+00 
0.0000000e+00 0.0000000e+00 0.0000000e+00 
0.0000000e+00 0.0000000e+00 0.0000000e+00 
0.0000000e+00 0.0000000e+00 0.0000000e+00 
0.0000000e+00 0.0000000e+00 0.0000000e+00 
0.0000000e+00 0.0000000e+00 0.0000000e+00 
0.0000000e+00 0.0000000e+00 0.0000000e+00 
0.0000000e+00 0.0000000e+00 0.0000000e+00 
0.0000000e+00 0.0000000e+00 0.0000000e+00 
0.0000000e+00 0.0000000e+00 0.0000000e+00 
0.0000000e+00 0.0000000e+00 0.0000000e+00 
0.0000000e+00 0.0000000e+00 0.0000000e+00 
0.0000000e+00 0.0000000e+00 0.0000000e+00 
0.0000000e+00 0.0000000e+00 0.0000000e+00 
0.0000000e+00 0.0000000e+00 0.0000000e+00 
0.0000000e+00 0.0000000e+00 0.0000000e+00 
0.0000000e+00 0.0000000e+00 0.0000000e+00 
0.0000000e+00 0.0000000e+00 0.0000000e+00 
0.0000000e+00 0.0000000e+00 0.0000000e+00 
0.0000000e+00 0.0000000e+00 0.0000000e+00 
0.0000000e+00 0.0000000e+00 0.0000000e+00 
0.0000000e+00 0.0000000e+00 0.0000000e+00 
0.0000000e+00 0.0000000e+00 0.0000000e+00 
0.0000000e+00 0.0000000e+00 0.0000000e+00 
0.0000000e+00 0.0000000e+00 0.0000000e+00 
0.0000000e+00 0.0000000e+00 0.0000000e+00 
0.0000000e+00 0.0000000e+00 0.0000000e+00 
0.0000000e+00 0.0000000e+00 0.0000000e+00 
0.0000000e+00 0.0000000e+00 0.0000000e+00 
0.0000000e+00 0.0000000e+00 0.0000000e+00 
0.0000000e+00 0.0000000e+00 0.0000000e+00 
0.0000000e+00 0.0000000e+00 0.0000000e+00 
0.0000000e+00 0.0000000e+00 0.0000000e+00 
0.0000000e+00 0.0000000e+00 0.0000000e+00 
0.0000000e+00 0.0000000e+00 0.0000000e+00 
0.0000000e+00 0.0000000e+00 0.0000000e+00 
0.0000000e+00 0.0000000e+00 0.0000000e+00 
0.0000000e+00 0.0000000e+00 0.0000000e+00 
0.0000000e+00 0.0000000e+00 0.0000000e+00 
0.0000000e+00 0.0000000e+00 0.0000000e+00 
0.0000000e+00 0.0000000e+00 0.0000000e+00 
0.0000000e+00 0.0000000e+00 0.0000000e+00 
0.0000000e+00 0.0000000e+00 0.0000000e+00 
0.0000000e+00 0.0000000e+00 0.0000000e+00 
0.0000000e+00 0.0000000e+00 0.0000000e+00 
0.0000000e+00 0.0000000e+00 0.0000000e+00 
0.0000000e+00 0.0000000e+00 0.0000000e+00 
0.0000000e+00 0.0000000e+00 0.0000000e+00 
0.0000000e+00 0.0000000e+00 0.0000000e+00 
0.0000000e+00 0.0000000e+00 0.0000000e+00 
0.0000000e+00 0.0000000e+00 0.0000000e+00 
0.0000000e+00 0.0000000e+00 0.0000000e+00 
0.0000000e+00 0.0000000e+00 0.0000000e+00 
0.0000000e+00 0.0000000e+00 0.0000000e+00 
0.0000000e+00 0.0000000e+00 0.0000000e+00 
0.0000000e+00 0.0000000e+00 0.0000000e+00 
0.0000000e+00 0.0000000e+00 0.0000000e+00 
0.0000000e+00 0.0000000e+00 0.0000000e+00 
0.0000000e+00 0.0000000e+00 0.0000000e+00 
0.0000000e+00 0.0000000e+00 0.0000000e+00 
0.0000000e+00 0.0000000e+00 0.0000000e+00 
0.0000000e+00 0.0000000e+00 0.0000000e+00 
0.0000000e+00 0.0000000e+00 0.0000000e+00 
0.0000000e+00 0.0000000e+00 0.0000000e+00 
0.0000000e+00 0.0000000e+00 0.0000000e+00 
0.0000000e+00 0.0000000e+00 0.0000000e+00 
0.0000000e+00 0.0000000e+00 0.0000000e+00 
0.0000000e+00 0.0000000e+00 0.0000000e+00 
0.0000000e+00 0.0000000e+00 0.0000000e+00 
0.0000000e+00 0.0000000e+00 0.0000000e+00 
0.0000000e+00 0.0000000e+00 0.0000000e+00 
0.0000000e+00 0.0000000e+00 0.0000000e+00 
0.0000000e+00 0.0000000e+00 0.0000000e+00 
0.0000000e+00 0.0000000e+00 0.0000000e+00 
0.0000000e+00 0.0000000e+00 0.0000000e+00 
0.0000000e+00 0.0000000e+00 0.0000000e+00 
0.0000000e+00 0.0000000e+00 0.0000000e+00 
0.0000000e+00 0.0000000e+00 0.0000000e+00 
0.0000000e+00 0.0000000e+00 0.0000000e+00 
0.0000000e+00 0.0000000e+00 0.0000000e+00 
0.0000000e+00 0.0000000e+00 0.0000000e+00 
0.0000000e+00 0.0000000e+00 0.0000000e+00 
0.0000000e+00 0.0000000e+00 0.0000000e+00 
0.0000000e+00 0.0000000e+00 0.0000000e+00 
0.0000000e+00 0.0000000e+00 0.0000000e+00 
0.0000000e+00 0.0000000e+00 0.0000000e+00 
0.0000000e+00 0.0000000e+00 0.0000000e+00 
0.0000000e+00 0.0000000e+00 0.0000000e+00 
0.0000000e+00 0.0000000e+00 0.0000000e+00 
0.0000000e+00 0.0000000e+00 0.0000000e+00 
0.0000000e+00 0.0000000e+00 0.0000000e+00 
0.0000000e+00 0.0000000e+00 0.0000000e+00 
0.0000000e+00 0.0000000e+00 0.0000000e+00 
0.0000000e+00 0.0000000e+00 0.0000000e+00 
0.0000000e+00 0.0000000e+00 0.0000000e+00 
0.0000000e+00 0.0000000e+00 0.0000000e+00 
0.0000000e+00 0.0000000e+00 0.0000000e+00 
0.0000000e+00 0.0000000e+00 0.0000000e+00 
0.0000000e+00 0.0000000e+00 0.0000000e+00 
0.0000000e+00 0.0000000e+00 0.0000000e+00 
0.0000000e+00 0.0000000e+00 0.0000000e+00 
0.0000000e+00 0.0000000e+00 0.0000000e+00 
0.0000000e+00 0.0000000e+00 0.0000000e+00 
0.0000000e+00 0.0000000e+00 0.0000000e+00 
0.0000000e+00 0.0000000e+00 0.0000000e+00 
0.0000000e+00 0.0000000e+00 0.0000000e+00 
0.0000000e+00 0.0000000e+00 0.0000000e+00 
0.0000000e+00 0.0000000e+00 0.0000000e+00 
0.0000000e+00 0.0000000e+00 0.0000000e+00 
0.0000000e+00 0.0000000e+00 0.0000000e+00 
0.0000000e+00 0.0000000e+00 0.0000000e+00 
0.0000000e+00 0.0000000e+00 0.0000000e+00 
0.0000000e+00 0.0000000e+00 0.0000000e+00 
0.0000000e+00 0.0000000e+00 0.0000000e+00 
0.0000000e+00 0.0000000e+00 0.0000000e+00 
0.0000000e+00 0.0000000e+00 0.0000000e+00 
0.0000000e+00 0.0000000e+00 0.0000000e+00 
0.0000000e+00 0.0000000e+00 0.0000000e+00 
0.0000000e+00 0.0000000e+00 0.0000000e+00 
0.0000000e+00 0.0000000e+00 0.0000000e+00 
0.0000000e+00 0.0000000e+00 0.0000000e+00 
0.0000000e+00 0.0000000e+00 0.0000000e+00 
0.0000000e+00 0.0000000e+00 0.0000000e+00 
0.0000000e+00 0.0000000e+00 0.0000000e+00 
0.0000000e+00 0.0000000e+00 0.0000000e+00 
0.0000000e+00 0.0000000e+00 0.0000000e+00 
0.0000000e+00 0.0000000e+00 0.0000000e+00 
0.0000000e+00 0.0000000e+00 0.0000000e+00 
0.0000000e+00 0.0000000e+00 0.0000000e+00 
0.0000000e+00 0.0000000e+00 0.0000000e+00 
0.0000000e+00 0.0000000e+00 0.0000000e+00 
0.0000000e+00 0.0000000e+00 0.0000000e+00 
0.0000000e+00 0.0000000e+00 0.0000000e+00 
0.0000000e+00 0.0000000e+00 0.0000000e+00 
0.0000000e+00 0.0000000e+00 0.0000000e+00 
0.0000000e+00 0.0000000e+00 0.0000000e+00 
0.0000000e+00 0.0000000e+00 0.0000000e+00 
0.0000000e+00 0.0000000e+00 0.0000000e+00 
0.0000000e+00 0.0000000e+00 0.0000000e+00 
0.0000000e+00 0.0000000e+00 0.0000000e+00 
0.0000000e+00 0.0000000e+00 0.0000000e+00 
0.0000000e+00 0.0000000e+00 0.0000000e+00 
0.0000000e+00 0.0000000e+00 0.0000000e+00 
0.0000000e+00 0.0000000e+00 0.0000000e+00 
0.0000000e+00 0.0000000e+00 0.0000000e+00 
0.0000000e+00 0.0000000e+00 0.0000000e+00 
0.0000000e+00 0.0000000e+00 0.0000000e+00 
0.0000000e+00 0.0000000e+00 0.0000000e+00 
0.0000000e+00 0.0000000e+00 0.0000000e+00 
0.0000000e+00 0.0000000e+00 0.0000000e+00 
0.0000000e+00 0.0000000e+00 0.0000000e+00 
0.0000000e+00 0.0000000e+00 0.0000000e+00 
0.0000000e+00 0.0000000e+00 0.0000000e+00 
0.0000000e+00 0.0000000e+00 0.0000000e+00 
0.0000000e+00 0.0000000e+00 0.0000000e+00 
0.0000000e+00 0.0000000e+00 0.0000000e+00 
0.0000000e+00 0.0000000e+00 0.0000000e+00 
0.0000000e+00 0.0000000e+00 0.0000000e+00 
0.0000000e+00 0.0000000e+00 0.0000000e+00 
0.0000000e+00 0.0000000e+00 0.0000000e+00 
0.0000000e+00 0.0000000e+00 0.0000000e+00 
0.0000000e+00 0.0000000e+00 0.0000000e+00 
0.0000000e+00 0.0000000e+00 0.0000000e+00 
0.0000000e+00 0.0000000e+00 0.0000000e+00 
0.0000000e+00 0.0000000e+00 0.0000000e+00 
0.0000000e+00 0.0000000e+00 0.0000000e+00 
0.0000000e+00 0.0000000e+00 0.0000000e+00 
0.0000000e+00 0.0000000e+00 0.0000000e+00 
0.0000000e+00 0.0000000e+00 0.0000000e+00 
0.0000000e+00 0.0000000e+00 0.0000000e+00 
0.0000000e+00 0.0000000e+00 0.0000000e+00 
0.0000000e+00 0.0000000e+00 0.0000000e+00 
0.0000000e+00 0.0000000e+00 0.0000000e+00 
0.0000000e+00 0.0000000e+00 0.0000000e+00 
0.0000000e+00 0.0000000e+00 0.0000000e+00 
0.0000000e+00 0.0000000e+00 0.0000000e+00 
0.0000000e+00 0.0000000e+00 0.0000000e+00 
0.0000000e+00 0.0000000e+00 0.0000000e+00 
0.0000000e+00 0.0000000e+00 0.0000000e+00 
0.0000000e+00 0.0000000e+00 0.0000000e+00 
0.0000000e+00 0.0000000e+00 0.0000000e+00 
0.0000000e+00 0.0000000e+00 0.0000000e+00 
0.0000000e+00 0.0000000e+00 0.0000000e+00 
0.0000000e+00 0.0000000e+00 0.0000000e+00 
0.0000000e+00 0.0000000e+00 0.0000000e+00 
0.0000000e+00 0.0000000e+00 0.0000000e+00 
0.0000000e+00 0.0000000e+00 0.0000000e+00 
0.0000000e+00 0.0000000e+00 0.0000000e+00 
0.0000000e+00 0.0000000e+00 0.0000000e+00 
0.0000000e+00 0.0000000e+00 0.0000000e+00 
0.0000000e+00 0.0000000e+00 0.0000000e+00 
0.0000000e+00 0.0000000e+00 0.0000000e+00 
0.0000000e+00 0.0000000e+00 0.0000000e+00 
0.0000000e+00 0.0000000e+00 0.0000000e+00 
0.0000000e+00 0.0000000e+00 0.0000000e+00 
0.0000000e+00 0.0000000e+00 0.0000000e+00 
0.0000000e+00 0.0000000e+00 0.0000000e+00 
0.0000000e+00 0.0000000e+00 0.0000000e+00 
0.0000000e+00 0.0000000e+00 0.0000000e+00 
0.0000000e+00 0.0000000e+00 0.0000000e+00 
0.0000000e+00 0.0000000e+00 0.0000000e+00 
0.0000000e+00 0.0000000e+00 0.0000000e+00 
0.0000000e+00 0.0000000e+00 0.0000000e+00 
0.0000000e+00 0.0000000e+00 0.0000000e+00 
0.0000000e+00 0.0000000e+00 0.0000000e+00 
0.0000000e+00 0.0000000e+00 0.0000000e+00 
0.0000000e+00 0.0000000e+00 0.0000000e+00 
0.0000000e+00 0.0000000e+00 0.0000000e+00 
0.0000000e+00 0.0000000e+00 0.0000000e+00 
0.0000000e+00 0.0000000e+00 0.0000000e+00 
0.0000000e+00 0.0000000e+00 0.0000000e+00 
0.0000000e+00 0.0000000e+00 0.0000000e+00 
0.0000000e+00 0.0000000e+00 0.0000000e+00 
0.0000000e+00 0.0000000e+00 0.0000000e+00 
0.0000000e+00 0.0000000e+00 0.0000000e+00 
0.0000000e+00 0.0000000e+00 0.0000000e+00 
0.0000000e+00 0.0000000e+00 0.0000000e+00 
0.0000000e+00 0.0000000e+00 0.0000000e+00 
0.0000000e+00 0.0000000e+00 0.0000000e+00 
0.0000000e+00 0.0000000e+00 0.0000000e+00 
0.0000000e+00 0.0000000e+00 0.0000000e+00 
0.0000000e+00 0.0000000e+00 0.0000000e+00 
0.0000000e+00 0.0000000e+00 0.0000000e+00 
0.0000000e+00 0.0000000e+00 0.0000000e+00 
0.0000000e+00 0.0000000e+00 0.0000000e+00 
0.0000000e+00 0.0000000e+00 0.0000000e+00 
0.0000000e+00 0.0000000e+00 0.0000000e+00 
0.0000000e+00 0.0000000e+00 0.0000000e+00 
0.0000000e+00 0.0000000e+00 0.0000000e+00 
0.0000000e+00 0.0000000e+00 0.0000000e+00 
0.0000000e+00 0.0000000e+00 0.0000000e+00 
0.0000000e+00 0.0000000e+00 0.0000000e+00 
0.0000000e+00 0.0000000e+00 0.0000000e+00 
0.0000000e+00 0.0000000e+00 0.0000000e+00 
0.0000000e+00 0.0000000e+00 0.0000000e+00 
0.0000000e+00 0.0000000e+00 0.0000000e+00 
0.0000000e+00 0.0000000e+00 0.0000000e+00 
0.0000000e+00 0.0000000e+00 0.0000000e+00 
0.0000000e+00 0.0000000e+00 0.0000000e+00 
0.0000000e+00 0.0000000e+00 0.0000000e+00 
0.0000000e+00 0.0000000e+00 0.0000000e+00 
0.0000000e+00 0.0000000e+00 0.0000000e+00 
0.0000000e+00 0.0000000e+00 0.0000000e+00 
0.0000000e+00 0.0000000e+00 0.0000000e+00 
0.0000000e+00 0.0000000e+00 0.0000000e+00 
0.0000000e+00 0.0000000e+00 0.0000000e+00 
0.0000000e+00 0.0000000e+00 0.0000000e+00 
0.0000000e+00 0.0000000e+00 0.0000000e+00 
0.0000000e+00 0.0000000e+00 0.0000000e+00 
0.0000000e+00 0.0000000e+00 0.0000000e+00 
0.0000000e+00 0.0000000e+00 0.0000000e+00 
0.0000000e+00 0.0000000e+00 0.0000000e+00 
0.0000000e+00 0.0000000e+00 0.0000000e+00 
0.0000000e+00 0.0000000e+00 0.0000000e+00 
0.0000000e+00 0.0000000e+00 0.0000000e+00 
0.0000000e+00 0.0000000e+00 0.0000000e+00 
0.0000000e+00 0.0000000e+00 0.0000000e+00 
0.0000000e+00 0.0000000e+00 0.0000000e+00 
0.0000000e+00 0.0000000e+00 0.0000000e+00 
0.0000000e+00 0.0000000e+00 0.0000000e+00 
0.0000000e+00 0.0000000e+00 0.0000000e+00 
0.0000000e+00 0.0000000e+00 0.0000000e+00 
0.0000000e+00 0.0000000e+00 0.0000000e+00 
0.0000000e+00 0.0000000e+00 0.0000000e+00 
0.0000000e+00 0.0000000e+00 0.0000000e+00 
0.0000000e+00 0.0000000e+00 0.0000000e+00 
0.0000000e+00 0.0000000e+00 0.0000000e+00 
0.0000000e+00 0.0000000e+00 0.0000000e+00 
0.0000000e+00 0.0000000e+00 0.0000000e+00 
0.0000000e+00 0.0000000e+00 0.0000000e+00 
0.0000000e+00 0.0000000e+00 0.0000000e+00 
0.0000000e+00 0.0000000e+00 0.0000000e+00 
0.0000000e+00 0.0000000e+00 0.0000000e+00 
0.0000000e+00 0.0000000e+00 0.0000000e+00 
0.0000000e+00 0.0000000e+00 0.0000000e+00 
0.0000000e+00 0.0000000e+00 0.0000000e+00 
0.0000000e+00 0.0000000e+00 0.0000000e+00 
0.0000000e+00 0.0000000e+00 0.0000000e+00 
0.0000000e+00 0.0000000e+00 0.0000000e+00 
0.0000000e+00 0.0000000e+00 0.0000000e+00 
0.0000000e+00 0.0000000e+00 0.0000000e+00 
0.0000000e+00 0.0000000e+00 0.0000000e+00 
0.0000000e+00 0.0000000e+00 0.0000000e+00 
0.0000000e+00 0.0000000e+00 0.0000000e+00 
0.0000000e+00 0.0000000e+00 0.0000000e+00 
0.0000000e+00 0.0000000e+00 0.0000000e+00 
0.0000000e+00 0.0000000e+00 0.0000000e+00 
0.0000000e+00 0.0000000e+00 0.0000000e+00 
0.0000000e+00 0.0000000e+00 0.0000000e+00 
0.0000000e+00 0.0000000e+00 0.0000000e+00 
0.0000000e+00 0.0000000e+00 0.0000000e+00 
0.0000000e+00 0.0000000e+00 0.0000000e+00 
0.0000000e+00 0.0000000e+00 0.0000000e+00 
0.0000000e+00 0.0000000e+00 0.0000000e+00 
0.0000000e+00 0.0000000e+00 0.0000000e+00 
0.0000000e+00 0.0000000e+00 0.0000000e+00 
0.0000000e+00 0.0000000e+00 0.0000000e+00 
0.0000000e+00 0.0000000e+00 0.0000000e+00 
0.0000000e+00 0.0000000e+00 0.0000000e+00 
0.0000000e+00 0.0000000e+00 0.0000000e+00 
0.0000000e+00 0.0000000e+00 0.0000000e+00 
0.0000000e+00 0.0000000e+00 0.0000000e+00 
0.0000000e+00 0.0000000e+00 0.0000000e+00 
0.0000000e+00 0.0000000e+00 0.0000000e+00 
0.0000000e+00 0.0000000e+00 0.0000000e+00 
0.0000000e+00 0.0000000e+00 0.0000000e+00 
0.0000000e+00 0.0000000e+00 0.0000000e+00 
0.0000000e+00 0.0000000e+00 0.0000000e+00 
0.0000000e+00 0.0000000e+00 0.0000000e+00 
0.0000000e+00 0.0000000e+00 0.0000000e+00 
0.0000000e+00 0.0000000e+00 0.0000000e+00 
0.0000000e+00 0.0000000e+00 0.0000000e+00 
0.0000000e+00 0.0000000e+00 0.0000000e+00 
0.0000000e+00 0.0000000e+00 0.0000000e+00 
0.0000000e+00 0.0000000e+00 0.0000000e+00 
0.0000000e+00 0.0000000e+00 0.0000000e+00 
0.0000000e+00 0.0000000e+00 0.0000000e+00 
0.0000000e+00 0.0000000e+00 0.0000000e+00 
0.0000000e+00 0.0000000e+00 0.0000000e+00 
0.0000000e+00 0.0000000e+00 0.0000000e+00 
0.0000000e+00 0.0000000e+00 0.0000000e+00 
0.0000000e+00 0.0000000e+00 0.0000000e+00 
0.0000000e+00 0.0000000e+00 0.0000000e+00 
0.0000000e+00 0.0000000e+00 0.0000000e+00 
0.0000000e+00 0.0000000e+00 0.0000000e+00 
0.0000000e+00 0.0000000e+00 0.0000000e+00 
0.0000000e+00 0.0000000e+00 0.0000000e+00 
0.0000000e+00 0.0000000e+00 0.0000000e+00 
0.0000000e+00 0.0000000e+00 0.0000000e+00 
0.0000000e+00 0.0000000e+00 0.0000000e+00 
0.0000000e+00 0.0000000e+00 0.0000000e+00 
0.0000000e+00 0.0000000e+00 0.0000000e+00 
0.0000000e+00 0.0000000e+00 0.0000000e+00 
0.0000000e+00 0.0000000e+00 0.0000000e+00 
0.0000000e+00 0.0000000e+00 0.0000000e+00 
0.0000000e+00 0.0000000e+00 0.0000000e+00 
0.0000000e+00 0.0000000e+00 0.0000000e+00 
0.0000000e+00 0.0000000e+00 0.0000000e+00 
0.0000000e+00 0.0000000e+00 0.0000000e+00 
0.0000000e+00 0.0000000e+00 0.0000000e+00 
0.0000000e+00 0.0000000e+00 0.0000000e+00 
0.0000000e+00 0.0000000e+00 0.0000000e+00 
0.0000000e+00 0.0000000e+00 0.0000000e+00 
0.0000000e+00 0.0000000e+00 0.0000000e+00 
0.0000000e+00 0.0000000e+00 0.0000000e+00 
0.0000000e+00 0.0000000e+00 0.0000000e+00 
0.0000000e+00 0.0000000e+00 0.0000000e+00 
0.0000000e+00 0.0000000e+00 0.0000000e+00 
0.0000000e+00 0.0000000e+00 0.0000000e+00 
0.0000000e+00 0.0000000e+00 0.0000000e+00 
0.0000000e+00 0.0000000e+00 0.0000000e+00 
0.0000000e+00 0.0000000e+00 0.0000000e+00 
0.0000000e+00 0.0000000e+00 0.0000000e+00 
0.0000000e+00 0.0000000e+00 0.0000000e+00 
0.0000000e+00 0.0000000e+00 0.0000000e+00 
0.0000000e+00 0.0000000e+00 0.0000000e+00 
0.0000000e+00 0.0000000e+00 0.0000000e+00 
0.0000000e+00 0.0000000e+00 0.0000000e+00 
0.0000000e+00 0.0000000e+00 0.0000000e+00 
0.0000000e+00 0.0000000e+00 0.0000000e+00 
0.0000000e+00 0.0000000e+00 0.0000000e+00 
0.0000000e+00 0.0000000e+00 0.0000000e+00 
0.0000000e+00 0.0000000e+00 0.0000000e+00 
0.0000000e+00 0.0000000e+00 0.0000000e+00 
0.0000000e+00 0.0000000e+00 0.0000000e+00 
0.0000000e+00 0.0000000e+00 0.0000000e+00 
0.0000000e+00 0.0000000e+00 0.0000000e+00 
0.0000000e+00 0.0000000e+00 0.0000000e+00 
0.0000000e+00 0.0000000e+00 0.0000000e+00 
0.0000000e+00 0.0000000e+00 0.0000000e+00 
0.0000000e+00 0.0000000e+00 0.0000000e+00 
0.0000000e+00 0.0000000e+00 0.0000000e+00 
0.0000000e+00 0.0000000e+00 0.0000000e+00 
0.0000000e+00 0.0000000e+00 0.0000000e+00 
0.0000000e+00 0.0000000e+00 0.0000000e+00 
0.0000000e+00 0.0000000e+00 0.0000000e+00 
0.0000000e+00 0.0000000e+00 0.0000000e+00 
0.0000000e+00 0.0000000e+00 0.0000000e+00 
0.0000000e+00 0.0000000e+00 0.0000000e+00 