# vtk DataFile Version 4.0
vtk output
ASCII
DATASET UNSTRUCTURED_GRID
POINTS 234 float
1.0000000e+01 1.5000000e+01 0.0000000e+00 
1.0000000e+01 1.5000000e+01 2.2143423e+00 
1.0000000e+01 1.5000000e+01 4.3861338e+00 
1.0000000e+01 1.5000000e+01 6.5229933e+00 
1.0000000e+01 1.5000000e+01 8.6276635e+00 
1.0000000e+01 1.5000000e+01 1.0702748e+01 
1.0000000e+01 1.5000000e+01 1.2750726e+01 
1.0000000e+01 1.5000000e+01 1.4792272e+01 
1.0000000e+01 1.5000000e+01 1.6833817e+01 
1.0000000e+01 1.5000000e+01 1.8875363e+01 
-1.0000000e+01 1.5000000e+01 0.0000000e+00 
-1.0000000e+01 1.5000000e+01 2.2143423e+00 
-1.0000000e+01 1.5000000e+01 4.3861338e+00 
1.0000000e+01 1.5000000e+01 2.0916909e+01 
-1.0000000e+01 1.5000000e+01 6.5229933e+00 
-1.0000000e+01 1.5000000e+01 8.6276635e+00 
-1.0000000e+01 1.5000000e+01 1.0702748e+01 
1.0000000e+01 1.5000000e+01 2.2958454e+01 
-1.0000000e+01 1.5000000e+01 1.2750726e+01 
-1.0000000e+01 1.5000000e+01 1.4792272e+01 
1.0000000e+01 1.5000000e+01 2.5000000e+01 
1.0000000e+01 1.3000000e+01 2.5000000e+01 
8.0000000e+00 1.5000000e+01 2.5000000e+01 
7.8611111e+00 1.2949464e+01 2.5000000e+01 
6.0000000e+00 1.5000000e+01 2.5000000e+01 
1.0000000e+01 1.1000000e+01 2.5000000e+01 
5.6712963e+00 1.2937835e+01 2.5000000e+01 
7.1666667e+00 1.0983968e+01 2.5000000e+01 
1.0000000e+01 9.0000000e+00 2.5000000e+01 
4.0000000e+00 1.5000000e+01 2.5000000e+01 
8.0000000e+00 9.2487113e+00 2.5000000e+01 
5.0000000e+00 1.0980762e+01 2.5000000e+01 
3.6666667e+00 1.2897858e+01 2.5000000e+01 
6.0000000e+00 9.2487113e+00 2.5000000e+01 
-1.0000000e+01 1.5000000e+01 1.6833817e+01 
2.0000000e+00 1.5000000e+01 2.5000000e+01 
1.0000000e+01 7.0000000e+00 2.5000000e+01 
3.0000000e+00 1.0980762e+01 2.5000000e+01 
7.3161113e+00 7.2862359e+00 2.5000000e+01 
4.0000000e+00 9.2487113e+00 2.5000000e+01 
1.6666667e+00 1.2897858e+01 2.5000000e+01 
5.1044590e+00 7.3963497e+00 2.5000000e+01 
8.3789407e+00 5.7158811e+00 2.5000000e+01 
2.0000000e+00 9.2487113e+00 2.5000000e+01 
1.0000000e+00 1.0980762e+01 2.5000000e+01 
0.0000000e+00 1.5000000e+01 2.5000000e+01 
1.0000000e+01 5.0000000e+00 2.5000000e+01 
3.0000000e+00 7.5166605e+00 2.5000000e+01 
6.3106430e+00 5.2931695e+00 2.5000000e+01 
-3.3333333e-01 1.2897858e+01 2.5000000e+01 
4.0000000e+00 5.7846097e+00 2.5000000e+01 
8.1978673e+00 3.9529733e+00 2.5000000e+01 
-1.0000000e+01 1.5000000e+01 1.8875363e+01 
-0.0000000e+00 9.2487113e+00 2.5000000e+01 
1.0000000e+00 7.5166605e+00 2.5000000e+01 
-1.0000000e+00 1.0980762e+01 2.5000000e+01 
-2.0000000e+00 1.5000000e+01 2.5000000e+01 
1.0000000e+01 3.0000000e+00 2.5000000e+01 
4.7080627e+00 4.0319271e+00 2.5000000e+01 
2.0000000e+00 5.7846097e+00 2.5000000e+01 
-2.3993887e+00 1.2930539e+01 2.5000000e+01 
6.2296707e+00 2.7087892e+00 2.5000000e+01 
3.0000000e+00 4.0525589e+00 2.5000000e+01 
8.2679492e+00 2.0000000e+00 2.5000000e+01 
-1.0000000e+00 7.5166605e+00 2.5000000e+01 
-2.0000000e+00 9.2487113e+00 2.5000000e+01 
-0.0000000e+00 5.7846097e+00 2.5000000e+01 
-3.0000000e+00 1.0980762e+01 2.5000000e+01 
3.9914416e+00 2.4102355e+00 2.5000000e+01 
-4.0000000e+00 1.5000000e+01 2.5000000e+01 
1.0000000e+01 1.0000000e+00 2.5000000e+01 
1.0000000e+00 4.0525589e+00 2.5000000e+01 
6.7668990e+00 8.9635361e-01 2.5000000e+01 
-4.3963319e+00 1.2908899e+01 2.5000000e+01 
-1.0000000e+01 1.5000000e+01 2.0916909e+01 
2.0000000e+00 2.3205081e+00 2.5000000e+01 
-3.0000000e+00 7.5166605e+00 2.5000000e+01 
5.0109159e+00 7.5917270e-01 2.5000000e+01 
-2.0000000e+00 5.7846097e+00 2.5000000e+01 
-4.0000000e+00 9.2487113e+00 2.5000000e+01 
8.1189135e+00 -6.3535754e-02 2.5000000e+01 
-1.0000000e+00 4.0525589e+00 2.5000000e+01 
-5.0000000e+00 1.0980762e+01 2.5000000e+01 
-6.0000000e+00 1.5000000e+01 2.5000000e+01 
1.0000000e+01 -1.0000000e+00 2.5000000e+01 
3.0000000e+00 5.8845727e-01 2.5000000e+01 
-0.0000000e+00 2.3205081e+00 2.5000000e+01 
6.1040424e+00 -7.8504493e-01 2.5000000e+01 
-6.3779915e+00 1.2779056e+01 2.5000000e+01 
1.0000000e+01 -1.5000000e+01 0.0000000e+00 
1.0000000e+01 -1.5000000e+01 2.2143423e+00 
-4.0000000e+00 5.7846097e+00 2.5000000e+01 
-5.0000000e+00 7.5166605e+00 2.5000000e+01 
1.0000000e+00 5.8845727e-01 2.5000000e+01 
-3.0000000e+00 4.0525589e+00 2.5000000e+01 
-6.0000000e+00 9.2487113e+00 2.5000000e+01 
1.0000000e+01 -1.5000000e+01 4.3861338e+00 
4.0000000e+00 -1.1435935e+00 2.5000000e+01 
-6.7291881e+00 1.0851448e+01 2.5000000e+01 
-1.0000000e+01 1.5000000e+01 2.2958454e+01 
-2.0000000e+00 2.3205081e+00 2.5000000e+01 
7.6144207e+00 -2.4066339e+00 2.5000000e+01 
1.0000000e+01 -1.5000000e+01 6.5229933e+00 
-8.0000000e+00 1.5000000e+01 2.5000000e+01 
1.0000000e+01 -3.0000000e+00 2.5000000e+01 
2.0000000e+00 -1.1435935e+00 2.5000000e+01 
-1.0000000e+00 5.8845727e-01 2.5000000e+01 
5.1131055e+00 -2.7520327e+00 2.5000000e+01 
-8.2679492e+00 1.2000000e+01 2.5000000e+01 
-5.0000000e+00 4.0525589e+00 2.5000000e+01 
-6.1511338e+00 5.7803134e+00 2.5000000e+01 
1.0000000e+01 -1.5000000e+01 8.6276635e+00 
-7.1666667e+00 7.4305504e+00 2.5000000e+01 
-4.0000000e+00 2.3205081e+00 2.5000000e+01 
-8.0000000e+00 9.2487113e+00 2.5000000e+01 
-0.0000000e+00 -1.1435935e+00 2.5000000e+01 
3.0000000e+00 -2.8756443e+00 2.5000000e+01 
-3.0000000e+00 5.8845727e-01 2.5000000e+01 
8.0000000e+00 -4.6076952e+00 2.5000000e+01 
1.0000000e+01 -1.5000000e+01 1.0702748e+01 
-1.0000000e+01 1.5000000e+01 2.5000000e+01 
1.0000000e+01 -5.0000000e+00 2.5000000e+01 
6.0000000e+00 -4.6076952e+00 2.5000000e+01 
1.0000000e+00 -2.8756443e+00 2.5000000e+01 
-1.0000000e+01 1.3000000e+01 2.5000000e+01 
-2.0000000e+00 -1.1435935e+00 2.5000000e+01 
-8.1476190e+00 5.8505404e+00 2.5000000e+01 
-1.0000000e+01 1.1000000e+01 2.5000000e+01 
4.0000000e+00 -4.6076952e+00 2.5000000e+01 
-6.1265306e+00 2.3310068e+00 2.5000000e+01 
-7.5925170e+00 4.0469607e+00 2.5000000e+01 
-5.0000000e+00 5.8845727e-01 2.5000000e+01 
-1.0000000e+01 9.0000000e+00 2.5000000e+01 
1.0000000e+01 -1.5000000e+01 1.2750726e+01 
-1.0000000e+00 -2.8756443e+00 2.5000000e+01 
2.0000000e+00 -4.6076952e+00 2.5000000e+01 
-4.0000000e+00 -1.1435935e+00 2.5000000e+01 
-1.0000000e+01 7.0000000e+00 2.5000000e+01 
7.1666667e+00 -6.4497883e+00 2.5000000e+01 
5.0000000e+00 -6.3397460e+00 2.5000000e+01 
1.0000000e+01 -7.0000000e+00 2.5000000e+01 
-0.0000000e+00 -4.6076952e+00 2.5000000e+01 
-3.0000000e+00 -2.8756443e+00 2.5000000e+01 
1.0000000e+01 -1.5000000e+01 1.4792272e+01 
-8.1771429e+00 2.2070031e+00 2.5000000e+01 
-1.0000000e+01 5.0000000e+00 2.5000000e+01 
-7.1666667e+00 6.5704772e-01 2.5000000e+01 
3.0000000e+00 -6.3397460e+00 2.5000000e+01 
-6.0000000e+00 -1.1435935e+00 2.5000000e+01 
-2.0000000e+00 -4.6076952e+00 2.5000000e+01 
8.1495238e+00 -8.0753379e+00 2.5000000e+01 
1.0000000e+00 -6.3397460e+00 2.5000000e+01 
-1.0000000e+01 3.0000000e+00 2.5000000e+01 
-5.0000000e+00 -2.8756443e+00 2.5000000e+01 
6.1495238e+00 -8.0992702e+00 2.5000000e+01 
1.0000000e+01 -1.5000000e+01 1.6833817e+01 
4.0000000e+00 -8.0717968e+00 2.5000000e+01 
1.0000000e+01 -9.0000000e+00 2.5000000e+01 
-1.0000000e+00 -6.3397460e+00 2.5000000e+01 
-4.0000000e+00 -4.6076952e+00 2.5000000e+01 
-8.0000000e+00 -1.1435935e+00 2.5000000e+01 
-1.0000000e+01 1.0000000e+00 2.5000000e+01 
2.0000000e+00 -8.0717968e+00 2.5000000e+01 
-7.1666667e+00 -2.8963703e+00 2.5000000e+01 
7.5809524e+00 -9.8551047e+00 2.5000000e+01 
-3.0000000e+00 -6.3397460e+00 2.5000000e+01 
1.0000000e+01 -1.5000000e+01 1.8875363e+01 
0.0000000e+00 -8.0717968e+00 2.5000000e+01 
5.0000000e+00 -9.8038476e+00 2.5000000e+01 
-6.0000000e+00 -4.6076952e+00 2.5000000e+01 
-1.0000000e+01 -1.0000000e+00 2.5000000e+01 
3.0000000e+00 -9.8038476e+00 2.5000000e+01 
-1.0000000e+01 -1.5000000e+01 0.0000000e+00 
1.0000000e+01 -1.1000000e+01 2.5000000e+01 
-2.0000000e+00 -8.0717968e+00 2.5000000e+01 
-1.0000000e+01 -1.5000000e+01 2.2143423e+00 
-5.0000000e+00 -6.3397460e+00 2.5000000e+01 
-1.0000000e+01 -1.5000000e+01 4.3861338e+00 
1.0000000e+00 -9.8038476e+00 2.5000000e+01 
8.0000000e+00 -1.1535898e+01 2.5000000e+01 
-8.0000000e+00 -4.6076952e+00 2.5000000e+01 
1.0000000e+01 -1.5000000e+01 2.0916909e+01 
-1.0000000e+01 -1.5000000e+01 6.5229933e+00 
6.1246032e+00 -1.1536998e+01 2.5000000e+01 
-1.0000000e+01 -3.0000000e+00 2.5000000e+01 
-4.0000000e+00 -8.0717968e+00 2.5000000e+01 
-1.0000000e+00 -9.8038476e+00 2.5000000e+01 
4.0000000e+00 -1.1535898e+01 2.5000000e+01 
-1.0000000e+01 -1.5000000e+01 8.6276635e+00 
-7.1666667e+00 -6.4497883e+00 2.5000000e+01 
2.0000000e+00 -1.1535898e+01 2.5000000e+01 
1.0000000e+01 -1.3000000e+01 2.5000000e+01 
-3.0000000e+00 -9.8038476e+00 2.5000000e+01 
-1.0000000e+01 -1.5000000e+01 1.0702748e+01 
-6.1518367e+00 -8.1003560e+00 2.5000000e+01 
-1.0000000e+01 -5.0000000e+00 2.5000000e+01 
1.0000000e+01 -1.5000000e+01 2.2958454e+01 
0.0000000e+00 -1.1535898e+01 2.5000000e+01 
7.1666667e+00 -1.3223291e+01 2.5000000e+01 
5.0000000e+00 -1.3267949e+01 2.5000000e+01 
-1.0000000e+01 -1.5000000e+01 1.2750726e+01 
-5.0000000e+00 -9.8038476e+00 2.5000000e+01 
3.0000000e+00 -1.3267949e+01 2.5000000e+01 
-2.0000000e+00 -1.1535898e+01 2.5000000e+01 
-8.1518367e+00 -8.0764238e+00 2.5000000e+01 
1.0000000e+00 -1.3267949e+01 2.5000000e+01 
-1.0000000e+01 -7.0000000e+00 2.5000000e+01 
-1.0000000e+01 -1.5000000e+01 1.4792272e+01 
1.0000000e+01 -1.5000000e+01 2.5000000e+01 
-4.0000000e+00 -1.1535898e+01 2.5000000e+01 
8.0000000e+00 -1.5000000e+01 2.5000000e+01 
6.0000000e+00 -1.5000000e+01 2.5000000e+01 
-1.0000000e+00 -1.3267949e+01 2.5000000e+01 
-7.5925170e+00 -9.8605338e+00 2.5000000e+01 
4.0000000e+00 -1.5000000e+01 2.5000000e+01 
-1.0000000e+01 -1.5000000e+01 1.6833817e+01 
2.0000000e+00 -1.5000000e+01 2.5000000e+01 
-6.1265306e+00 -1.1537903e+01 2.5000000e+01 
-3.0000000e+00 -1.3267949e+01 2.5000000e+01 
-1.0000000e+01 -9.0000000e+00 2.5000000e+01 
-0.0000000e+00 -1.5000000e+01 2.5000000e+01 
-5.0000000e+00 -1.3267949e+01 2.5000000e+01 
-8.0000000e+00 -1.1535898e+01 2.5000000e+01 
-1.0000000e+01 -1.5000000e+01 1.8875363e+01 
-2.0000000e+00 -1.5000000e+01 2.5000000e+01 
-1.0000000e+01 -1.1000000e+01 2.5000000e+01 
-7.1666667e+00 -1.3223291e+01 2.5000000e+01 
-4.0000000e+00 -1.5000000e+01 2.5000000e+01 
-1.0000000e+01 -1.5000000e+01 2.0916909e+01 
-6.0000000e+00 -1.5000000e+01 2.5000000e+01 
-1.0000000e+01 -1.3000000e+01 2.5000000e+01 
-1.0000000e+01 -1.5000000e+01 2.2958454e+01 
-8.0000000e+00 -1.5000000e+01 2.5000000e+01 
-1.0000000e+01 -1.5000000e+01 2.5000000e+01 

CELLS 368 1424
3 120 124 103
3 232 229 226
3 84 70 80
3 83 103 88
3 226 229 221
3 232 226 230
3 80 70 63
3 88 103 108
3 221 229 227
3 63 70 57
3 80 63 72
3 221 227 218
3 63 57 51
3 72 63 61
3 218 227 224
3 221 218 209
3 51 57 46
3 61 63 51
3 209 218 203
3 221 209 217
3 61 51 48
3 203 218 212
3 217 209 201
3 221 217 226
3 48 51 42
3 212 218 224
3 201 209 192
3 226 217 222
3 42 51 46
3 212 224 220
3 192 209 203
3 222 217 213
3 212 220 205
3 213 217 201
3 222 213 225
3 205 220 216
3 213 201 194
3 205 216 202
3 194 201 185
3 213 194 204
3 202 216 214
3 185 201 192
3 204 194 189
3 213 204 219
3 185 192 174
3 189 194 176
3 174 192 186
3 185 174 165
3 176 194 185
3 189 176 169
3 186 192 203
3 165 174 158
3 169 176 159
3 189 169 180
3 158 174 167
3 165 158 149
3 159 176 165
3 180 169 163
3 167 174 186
3 165 176 185
3 180 163 184
3 149 158 141
3 141 158 151
3 149 141 134
3 151 158 167
3 134 141 123
3 123 141 135
3 134 123 115
3 135 141 151
3 115 123 105
3 134 115 125
3 105 123 116
3 115 105 93
3 125 115 106
3 116 123 135
3 93 105 85
3 106 115 93
3 85 105 97
3 93 85 75
3 97 105 116
3 85 97 77
3 75 85 68
3 77 97 87
3 85 77 68
3 87 97 107
3 68 77 61
3 107 97 116
3 87 107 101
3 107 116 128
3 101 107 122
3 87 101 80
3 128 116 135
3 122 107 128
3 128 135 147
3 122 128 139
3 147 135 151
3 139 128 147
3 147 151 162
3 139 147 156
3 162 151 167
3 156 147 162
3 162 167 178
3 156 162 171
3 178 167 186
3 171 162 178
3 178 186 197
3 171 178 190
3 197 186 203
3 190 178 197
3 197 203 212
3 190 197 205
3 197 212 205
3 163 169 153
3 153 169 159
3 163 153 148
3 153 159 142
3 148 153 136
3 142 159 149
3 136 153 142
3 149 159 165
3 136 142 125
3 125 142 134
3 136 125 117
3 134 142 149
3 117 125 106
3 117 106 100
3 100 106 86
3 117 100 113
3 86 106 93
3 113 100 94
3 86 93 75
3 94 100 81
3 81 100 86
3 94 81 78
3 81 86 71
3 78 81 66
3 71 86 75
3 66 81 71
3 66 71 59
3 59 71 62
3 62 71 75
3 59 62 50
3 50 62 58
3 59 50 47
3 58 62 68
3 47 50 41
3 68 62 75
3 41 50 48
3 47 41 39
3 39 41 33
3 47 39 43
3 33 41 38
3 43 39 37
3 38 41 48
3 33 38 30
3 37 39 31
3 30 38 36
3 33 30 27
3 31 39 33
3 27 30 25
3 33 27 31
3 31 27 26
3 26 27 23
3 31 26 32
3 23 27 25
3 26 23 24
3 32 26 29
3 190 205 202
3 190 202 187
3 187 202 199
3 190 187 171
3 199 202 214
3 171 187 168
3 199 214 211
3 168 187 183
3 199 211 198
3 183 187 199
3 198 211 210
3 199 198 183
3 198 210 191
3 183 198 179
3 179 198 191
3 183 179 164
3 164 173 157
3 183 164 168
3 168 164 154
3 154 164 150
3 168 154 156
3 150 164 157
3 156 154 139
3 139 154 138
3 138 154 150
3 139 138 122
3 138 150 140
3 122 138 118
3 118 138 121
3 122 118 101
3 101 118 104
3 117 113 131
3 131 113 129
3 117 131 136
3 129 113 109
3 131 129 146
3 136 131 148
3 109 113 94
3 129 109 130
3 146 129 144
3 148 131 146
3 109 94 91
3 130 109 110
3 144 129 130
3 91 94 78
3 130 110 126
3 91 78 76
3 126 110 112
3 76 78 64
3 91 76 92
3 112 110 92
3 64 78 66
3 92 76 79
3 92 110 91
3 79 76 65
3 92 79 95
3 91 110 109
3 79 65 67
3 95 79 82
3 67 65 55
3 82 79 67
3 95 82 98
3 55 65 53
3 98 82 88
3 95 98 114
3 53 65 64
3 114 108 127
3 95 114 112
3 64 65 76
3 112 114 137
3 95 112 92
3 148 146 160
3 160 146 161
3 148 160 163
3 163 160 184
3 82 67 73
3 73 67 60
3 82 73 88
3 60 67 55
3 73 60 69
3 60 55 49
3 49 55 44
3 60 49 56
3 44 55 53
3 49 44 40
3 44 53 43
3 40 44 37
3 49 40 45
3 44 43 37
3 40 37 32
3 32 37 31
3 40 32 35
3 43 53 54
3 54 53 64
3 43 54 47
3 54 64 66
3 47 54 59
3 54 66 59
3 170 184 160
3 20 22 21
3 210 208 191
3 226 222 230
3 137 145 126
3 72 61 77
3 72 77 87
3 36 28 30
3 168 156 171
3 219 225 213
3 157 140 150
3 35 45 40
3 189 180 206
3 127 132 114
3 42 46 36
3 42 36 38
3 42 38 48
3 144 130 152
3 83 88 73
3 204 189 206
3 195 206 180
3 24 29 26
3 191 173 179
3 152 161 144
3 25 21 23
3 230 233 232
3 121 104 118
3 56 69 60
3 130 126 145
3 124 127 108
3 108 114 98
3 108 98 88
3 108 103 124
3 80 72 87
3 80 101 84
3 84 101 104
3 126 112 137
3 184 195 180
3 22 24 23
3 145 152 130
3 61 48 58
3 58 48 50
3 61 58 68
3 28 25 30
3 225 230 222
3 140 121 138
3 45 56 49
3 132 137 114
3 146 144 161
3 206 219 204
3 29 35 32
3 173 164 179
3 161 170 160
3 69 83 73
3 23 21 22
2 233 231
2 231 228
2 228 223
2 223 215
2 215 207
2 207 200
2 200 193
2 193 188
2 188 182
2 182 177
2 177 175
2 175 172
2 120 99
2 99 74
2 74 52
2 52 34
2 34 19
2 19 18
2 18 16
2 16 15
2 15 14
2 14 12
2 12 11
2 11 10
2 20 17
2 17 13
2 13 9
2 9 8
2 8 7
2 7 6
2 6 5
2 5 4
2 4 3
2 3 2
2 2 1
2 1 0
2 208 196
2 196 181
2 181 166
2 166 155
2 155 143
2 143 133
2 133 119
2 119 111
2 111 102
2 102 96
2 96 90
2 90 89

CELL_TYPES 368
5
5
5
5
5
5
5
5
5
5
5
5
5
5
5
5
5
5
5
5
5
5
5
5
5
5
5
5
5
5
5
5
5
5
5
5
5
5
5
5
5
5
5
5
5
5
5
5
5
5
5
5
5
5
5
5
5
5
5
5
5
5
5
5
5
5
5
5
5
5
5
5
5
5
5
5
5
5
5
5
5
5
5
5
5
5
5
5
5
5
5
5
5
5
5
5
5
5
5
5
5
5
5
5
5
5
5
5
5
5
5
5
5
5
5
5
5
5
5
5
5
5
5
5
5
5
5
5
5
5
5
5
5
5
5
5
5
5
5
5
5
5
5
5
5
5
5
5
5
5
5
5
5
5
5
5
5
5
5
5
5
5
5
5
5
5
5
5
5
5
5
5
5
5
5
5
5
5
5
5
5
5
5
5
5
5
5
5
5
5
5
5
5
5
5
5
5
5
5
5
5
5
5
5
5
5
5
5
5
5
5
5
5
5
5
5
5
5
5
5
5
5
5
5
5
5
5
5
5
5
5
5
5
5
5
5
5
5
5
5
5
5
5
5
5
5
5
5
5
5
5
5
5
5
5
5
5
5
5
5
5
5
5
5
5
5
5
5
5
5
5
5
5
5
5
5
5
5
5
5
5
5
5
5
5
5
5
5
5
5
5
5
5
5
5
5
5
5
5
5
5
5
5
5
5
5
5
5
5
5
5
5
5
5
5
5
5
5
5
5
3
3
3
3
3
3
3
3
3
3
3
3
3
3
3
3
3
3
3
3
3
3
3
3
3
3
3
3
3
3
3
3
3
3
3
3
3
3
3
3
3
3
3
3
3
3
3
3
POINT_DATA 234
FIELD FieldData 4
DISPLACEMENT 3 234  float
-1.5566451e+00 3.6085981e+00 0.0000000e+00 
-1.3910142e+00 3.2077980e+00 0.0000000e+00 
-1.2298369e+00 2.8184167e+00 0.0000000e+00 
-1.0736941e+00 2.4424412e+00 0.0000000e+00 
-9.2342853e-01 2.0824396e+00 0.0000000e+00 
-7.7980747e-01 1.7407546e+00 0.0000000e+00 
-6.4353779e-01 1.4195471e+00 0.0000000e+00 
-5.1414999e-01 1.1182250e+00 0.0000000e+00 
-3.9223893e-01 8.3877118e-01 0.0000000e+00 
-2.7883651e-01 5.8420362e-01 0.0000000e+00 
-1.2528002e+00 1.3563452e-01 0.0000000e+00 
-1.1119730e+00 1.1735756e-01 0.0000000e+00 
-9.7521939e-01 9.9718603e-02 0.0000000e+00 
-1.7497462e-01 3.5754049e-01 0.0000000e+00 
-8.4329308e-01 8.2914506e-02 0.0000000e+00 
-7.1714701e-01 6.7159079e-02 0.0000000e+00 
-5.9765081e-01 5.2647958e-02 0.0000000e+00 
-8.1685146e-02 1.6179990e-01 0.0000000e+00 
-4.8560689e-01 3.9562045e-02 0.0000000e+00 
-3.8085918e-01 2.7973746e-02 0.0000000e+00 
0.0000000e+00 0.0000000e+00 0.0000000e+00 
0.0000000e+00 0.0000000e+00 0.0000000e+00 
0.0000000e+00 0.0000000e+00 0.0000000e+00 
0.0000000e+00 0.0000000e+00 0.0000000e+00 
0.0000000e+00 0.0000000e+00 0.0000000e+00 
0.0000000e+00 0.0000000e+00 0.0000000e+00 
0.0000000e+00 0.0000000e+00 0.0000000e+00 
0.0000000e+00 0.0000000e+00 0.0000000e+00 
0.0000000e+00 0.0000000e+00 0.0000000e+00 
0.0000000e+00 0.0000000e+00 0.0000000e+00 
0.0000000e+00 0.0000000e+00 0.0000000e+00 
0.0000000e+00 0.0000000e+00 0.0000000e+00 
0.0000000e+00 0.0000000e+00 0.0000000e+00 
0.0000000e+00 0.0000000e+00 0.0000000e+00 
-2.8415636e-01 1.8072793e-02 0.0000000e+00 
0.0000000e+00 0.0000000e+00 0.0000000e+00 
0.0000000e+00 0.0000000e+00 0.0000000e+00 
0.0000000e+00 0.0000000e+00 0.0000000e+00 
0.0000000e+00 0.0000000e+00 0.0000000e+00 
0.0000000e+00 0.0000000e+00 0.0000000e+00 
0.0000000e+00 0.0000000e+00 0.0000000e+00 
0.0000000e+00 0.0000000e+00 0.0000000e+00 
0.0000000e+00 0.0000000e+00 0.0000000e+00 
0.0000000e+00 0.0000000e+00 0.0000000e+00 
0.0000000e+00 0.0000000e+00 0.0000000e+00 
0.0000000e+00 0.0000000e+00 0.0000000e+00 
0.0000000e+00 0.0000000e+00 0.0000000e+00 
0.0000000e+00 0.0000000e+00 0.0000000e+00 
0.0000000e+00 0.0000000e+00 0.0000000e+00 
0.0000000e+00 0.0000000e+00 0.0000000e+00 
0.0000000e+00 0.0000000e+00 0.0000000e+00 
0.0000000e+00 0.0000000e+00 0.0000000e+00 
-1.9660872e-01 1.0092064e-02 0.0000000e+00 
0.0000000e+00 0.0000000e+00 0.0000000e+00 
0.0000000e+00 0.0000000e+00 0.0000000e+00 
0.0000000e+00 0.0000000e+00 0.0000000e+00 
0.0000000e+00 0.0000000e+00 0.0000000e+00 
0.0000000e+00 0.0000000e+00 0.0000000e+00 
0.0000000e+00 0.0000000e+00 0.0000000e+00 
0.0000000e+00 0.0000000e+00 0.0000000e+00 
0.0000000e+00 0.0000000e+00 0.0000000e+00 
0.0000000e+00 0.0000000e+00 0.0000000e+00 
0.0000000e+00 0.0000000e+00 0.0000000e+00 
0.0000000e+00 0.0000000e+00 0.0000000e+00 
0.0000000e+00 0.0000000e+00 0.0000000e+00 
0.0000000e+00 0.0000000e+00 0.0000000e+00 
0.0000000e+00 0.0000000e+00 0.0000000e+00 
0.0000000e+00 0.0000000e+00 0.0000000e+00 
0.0000000e+00 0.0000000e+00 0.0000000e+00 
0.0000000e+00 0.0000000e+00 0.0000000e+00 
0.0000000e+00 0.0000000e+00 0.0000000e+00 
0.0000000e+00 0.0000000e+00 0.0000000e+00 
0.0000000e+00 0.0000000e+00 0.0000000e+00 
0.0000000e+00 0.0000000e+00 0.0000000e+00 
-1.1932658e-01 4.2644366e-03 0.0000000e+00 
0.0000000e+00 0.0000000e+00 0.0000000e+00 
0.0000000e+00 0.0000000e+00 0.0000000e+00 
0.0000000e+00 0.0000000e+00 0.0000000e+00 
0.0000000e+00 0.0000000e+00 0.0000000e+00 
0.0000000e+00 0.0000000e+00 0.0000000e+00 
0.0000000e+00 0.0000000e+00 0.0000000e+00 
0.0000000e+00 0.0000000e+00 0.0000000e+00 
0.0000000e+00 0.0000000e+00 0.0000000e+00 
0.0000000e+00 0.0000000e+00 0.0000000e+00 
0.0000000e+00 0.0000000e+00 0.0000000e+00 
0.0000000e+00 0.0000000e+00 0.0000000e+00 
0.0000000e+00 0.0000000e+00 0.0000000e+00 
0.0000000e+00 0.0000000e+00 0.0000000e+00 
0.0000000e+00 0.0000000e+00 0.0000000e+00 
3.6528002e+00 4.0643655e+00 0.0000000e+00 
3.2459704e+00 3.6652231e+00 0.0000000e+00 
0.0000000e+00 0.0000000e+00 0.0000000e+00 
0.0000000e+00 0.0000000e+00 0.0000000e+00 
0.0000000e+00 0.0000000e+00 0.0000000e+00 
0.0000000e+00 0.0000000e+00 0.0000000e+00 
0.0000000e+00 0.0000000e+00 0.0000000e+00 
2.8507720e+00 3.2755432e+00 0.0000000e+00 
0.0000000e+00 0.0000000e+00 0.0000000e+00 
0.0000000e+00 0.0000000e+00 0.0000000e+00 
-5.3420233e-02 8.2278937e-04 0.0000000e+00 
0.0000000e+00 0.0000000e+00 0.0000000e+00 
0.0000000e+00 0.0000000e+00 0.0000000e+00 
2.4692591e+00 2.8955758e+00 0.0000000e+00 
0.0000000e+00 0.0000000e+00 0.0000000e+00 
0.0000000e+00 0.0000000e+00 0.0000000e+00 
0.0000000e+00 0.0000000e+00 0.0000000e+00 
0.0000000e+00 0.0000000e+00 0.0000000e+00 
0.0000000e+00 0.0000000e+00 0.0000000e+00 
0.0000000e+00 0.0000000e+00 0.0000000e+00 
0.0000000e+00 0.0000000e+00 0.0000000e+00 
0.0000000e+00 0.0000000e+00 0.0000000e+00 
2.1040720e+00 2.5263044e+00 0.0000000e+00 
0.0000000e+00 0.0000000e+00 0.0000000e+00 
0.0000000e+00 0.0000000e+00 0.0000000e+00 
0.0000000e+00 0.0000000e+00 0.0000000e+00 
0.0000000e+00 0.0000000e+00 0.0000000e+00 
0.0000000e+00 0.0000000e+00 0.0000000e+00 
0.0000000e+00 0.0000000e+00 0.0000000e+00 
0.0000000e+00 0.0000000e+00 0.0000000e+00 
1.7576198e+00 2.1686166e+00 0.0000000e+00 
0.0000000e+00 0.0000000e+00 0.0000000e+00 
0.0000000e+00 0.0000000e+00 0.0000000e+00 
0.0000000e+00 0.0000000e+00 0.0000000e+00 
0.0000000e+00 0.0000000e+00 0.0000000e+00 
0.0000000e+00 0.0000000e+00 0.0000000e+00 
0.0000000e+00 0.0000000e+00 0.0000000e+00 
0.0000000e+00 0.0000000e+00 0.0000000e+00 
0.0000000e+00 0.0000000e+00 0.0000000e+00 
0.0000000e+00 0.0000000e+00 0.0000000e+00 
0.0000000e+00 0.0000000e+00 0.0000000e+00 
0.0000000e+00 0.0000000e+00 0.0000000e+00 
0.0000000e+00 0.0000000e+00 0.0000000e+00 
0.0000000e+00 0.0000000e+00 0.0000000e+00 
1.4321246e+00 1.8233243e+00 0.0000000e+00 
0.0000000e+00 0.0000000e+00 0.0000000e+00 
0.0000000e+00 0.0000000e+00 0.0000000e+00 
0.0000000e+00 0.0000000e+00 0.0000000e+00 
0.0000000e+00 0.0000000e+00 0.0000000e+00 
0.0000000e+00 0.0000000e+00 0.0000000e+00 
0.0000000e+00 0.0000000e+00 0.0000000e+00 
0.0000000e+00 0.0000000e+00 0.0000000e+00 
0.0000000e+00 0.0000000e+00 0.0000000e+00 
0.0000000e+00 0.0000000e+00 0.0000000e+00 
1.1270200e+00 1.4882199e+00 0.0000000e+00 
0.0000000e+00 0.0000000e+00 0.0000000e+00 
0.0000000e+00 0.0000000e+00 0.0000000e+00 
0.0000000e+00 0.0000000e+00 0.0000000e+00 
0.0000000e+00 0.0000000e+00 0.0000000e+00 
0.0000000e+00 0.0000000e+00 0.0000000e+00 
0.0000000e+00 0.0000000e+00 0.0000000e+00 
0.0000000e+00 0.0000000e+00 0.0000000e+00 
0.0000000e+00 0.0000000e+00 0.0000000e+00 
0.0000000e+00 0.0000000e+00 0.0000000e+00 
0.0000000e+00 0.0000000e+00 0.0000000e+00 
0.0000000e+00 0.0000000e+00 0.0000000e+00 
8.4435327e-01 1.1636616e+00 0.0000000e+00 
0.0000000e+00 0.0000000e+00 0.0000000e+00 
0.0000000e+00 0.0000000e+00 0.0000000e+00 
0.0000000e+00 0.0000000e+00 0.0000000e+00 
0.0000000e+00 0.0000000e+00 0.0000000e+00 
0.0000000e+00 0.0000000e+00 0.0000000e+00 
0.0000000e+00 0.0000000e+00 0.0000000e+00 
0.0000000e+00 0.0000000e+00 0.0000000e+00 
0.0000000e+00 0.0000000e+00 0.0000000e+00 
0.0000000e+00 0.0000000e+00 0.0000000e+00 
0.0000000e+00 0.0000000e+00 0.0000000e+00 
5.8722116e-01 8.5110494e-01 0.0000000e+00 
0.0000000e+00 0.0000000e+00 0.0000000e+00 
0.0000000e+00 0.0000000e+00 0.0000000e+00 
0.0000000e+00 0.0000000e+00 0.0000000e+00 
0.0000000e+00 0.0000000e+00 0.0000000e+00 
0.0000000e+00 0.0000000e+00 0.0000000e+00 
3.9566451e+00 5.9140193e-01 0.0000000e+00 
0.0000000e+00 0.0000000e+00 0.0000000e+00 
0.0000000e+00 0.0000000e+00 0.0000000e+00 
3.5529730e+00 5.0920971e-01 0.0000000e+00 
0.0000000e+00 0.0000000e+00 0.0000000e+00 
3.1594947e+00 4.2996187e-01 0.0000000e+00 
0.0000000e+00 0.0000000e+00 0.0000000e+00 
0.0000000e+00 0.0000000e+00 0.0000000e+00 
0.0000000e+00 0.0000000e+00 0.0000000e+00 
3.5872042e-01 5.5200545e-01 0.0000000e+00 
2.7770281e+00 3.5461181e-01 0.0000000e+00 
0.0000000e+00 0.0000000e+00 0.0000000e+00 
0.0000000e+00 0.0000000e+00 0.0000000e+00 
0.0000000e+00 0.0000000e+00 0.0000000e+00 
0.0000000e+00 0.0000000e+00 0.0000000e+00 
0.0000000e+00 0.0000000e+00 0.0000000e+00 
2.4070824e+00 2.8418307e-01 0.0000000e+00 
0.0000000e+00 0.0000000e+00 0.0000000e+00 
0.0000000e+00 0.0000000e+00 0.0000000e+00 
0.0000000e+00 0.0000000e+00 0.0000000e+00 
0.0000000e+00 0.0000000e+00 0.0000000e+00 
2.0510277e+00 2.1961242e-01 0.0000000e+00 
0.0000000e+00 0.0000000e+00 0.0000000e+00 
0.0000000e+00 0.0000000e+00 0.0000000e+00 
1.6194778e-01 2.6781863e-01 0.0000000e+00 
0.0000000e+00 0.0000000e+00 0.0000000e+00 
0.0000000e+00 0.0000000e+00 0.0000000e+00 
0.0000000e+00 0.0000000e+00 0.0000000e+00 
1.7101231e+00 1.6176619e-01 0.0000000e+00 
0.0000000e+00 0.0000000e+00 0.0000000e+00 
0.0000000e+00 0.0000000e+00 0.0000000e+00 
0.0000000e+00 0.0000000e+00 0.0000000e+00 
0.0000000e+00 0.0000000e+00 0.0000000e+00 
0.0000000e+00 0.0000000e+00 0.0000000e+00 
0.0000000e+00 0.0000000e+00 0.0000000e+00 
1.3826648e+00 1.1103377e-01 0.0000000e+00 
0.0000000e+00 0.0000000e+00 0.0000000e+00 
0.0000000e+00 0.0000000e+00 0.0000000e+00 
0.0000000e+00 0.0000000e+00 0.0000000e+00 
0.0000000e+00 0.0000000e+00 0.0000000e+00 
0.0000000e+00 0.0000000e+00 0.0000000e+00 
0.0000000e+00 0.0000000e+00 0.0000000e+00 
0.0000000e+00 0.0000000e+00 0.0000000e+00 
1.0695433e+00 6.8332090e-02 0.0000000e+00 
0.0000000e+00 0.0000000e+00 0.0000000e+00 
0.0000000e+00 0.0000000e+00 0.0000000e+00 
0.0000000e+00 0.0000000e+00 0.0000000e+00 
0.0000000e+00 0.0000000e+00 0.0000000e+00 
0.0000000e+00 0.0000000e+00 0.0000000e+00 
0.0000000e+00 0.0000000e+00 0.0000000e+00 
0.0000000e+00 0.0000000e+00 0.0000000e+00 
7.7273743e-01 3.4769517e-02 0.0000000e+00 
0.0000000e+00 0.0000000e+00 0.0000000e+00 
0.0000000e+00 0.0000000e+00 0.0000000e+00 
0.0000000e+00 0.0000000e+00 0.0000000e+00 
0.0000000e+00 0.0000000e+00 0.0000000e+00 
4.9422578e-01 1.1454406e-02 0.0000000e+00 
0.0000000e+00 0.0000000e+00 0.0000000e+00 
0.0000000e+00 0.0000000e+00 0.0000000e+00 
2.3598707e-01 -5.0488588e-04 0.0000000e+00 
0.0000000e+00 0.0000000e+00 0.0000000e+00 
0.0000000e+00 0.0000000e+00 0.0000000e+00 
REACTION 3 234  float
-2.5091086e+07 7.3387169e+07 -0.0000000e+00 
-7.2479248e-05 1.7547607e-04 -0.0000000e+00 
7.2479248e-05 -2.4414063e-04 -0.0000000e+00 
-3.4332275e-05 1.6021729e-04 -0.0000000e+00 
-3.0517578e-05 8.3923340e-05 -0.0000000e+00 
7.6293945e-06 -1.3732910e-04 -0.0000000e+00 
-0.0000000e+00 7.6293945e-05 -0.0000000e+00 
1.9073486e-05 -2.2888184e-05 -0.0000000e+00 
-3.0517578e-05 -4.5776367e-05 -0.0000000e+00 
3.0517578e-05 -3.8146973e-05 -0.0000000e+00 
-2.6997703e+07 5.6625439e+06 -0.0000000e+00 
3.8146973e-06 7.6293945e-06 -0.0000000e+00 
7.6293945e-06 -7.1525574e-06 -0.0000000e+00 
5.7220459e-06 7.6293945e-06 -0.0000000e+00 
-2.2888184e-05 2.3841858e-06 -0.0000000e+00 
2.2888184e-05 2.8610229e-06 -0.0000000e+00 
1.1444092e-05 -3.5762787e-06 -0.0000000e+00 
7.6293945e-06 -7.6293945e-06 -0.0000000e+00 
1.5258789e-05 -0.0000000e+00 -0.0000000e+00 
3.8146973e-06 -2.3841858e-06 -0.0000000e+00 
2.5091086e+07 -7.3387169e+07 -5.8897344e+08 
2.0285813e-08 -7.6170479e-08 1.3057773e+09 
3.3435335e-08 1.7037715e-08 -6.5827535e+08 
-1.1034692e-08 -8.1472197e-09 -3.2435370e+07 
-1.1691317e-08 5.4344673e-09 1.7421062e+08 
1.3505599e-09 1.6984180e-08 -2.6932686e+08 
-4.4050216e-07 2.2018780e-06 4.6820092e+07 
8.3272976e-09 8.0856464e-09 2.6330625e+07 
1.3224463e-09 -3.3342763e-09 3.7480326e+07 
2.1303272e-06 4.2529000e-08 -2.9526287e+07 
-1.4356165e-08 9.1265922e-09 5.6377628e+06 
-1.7627421e-08 -1.4003173e-08 -1.3473306e+07 
-1.6806037e-06 -2.2433214e-06 -8.1896975e+06 
2.5909469e-09 -4.7251683e-09 -6.3524495e+05 
7.6293945e-06 1.9073486e-06 -0.0000000e+00 
5.9319092e-10 3.6432521e-10 6.1653192e+06 
3.0876161e-09 3.1409564e-10 -8.3178989e+06 
4.4259112e-09 6.9826838e-09 9.7158466e+05 
1.9634640e-08 7.0379193e-11 4.5110070e+06 
2.5725478e-09 -1.1126123e-08 4.4115457e+05 
-7.0544836e-09 -3.1803842e-09 1.2286089e+06 
-2.1174163e-09 3.8731657e-09 1.4517884e+06 
-3.1430217e-09 -7.7865279e-10 -1.9447523e+05 
1.6717128e-08 7.2467877e-09 -1.9760700e+04 
2.2361598e-09 -6.9328066e-09 -1.8781640e+05 
-1.2765863e-11 -2.5814876e-10 -8.3921145e+05 
-4.0410959e-10 -4.2204437e-09 2.8283479e+05 
-1.6989093e-08 -1.3890591e-08 -8.5690210e+04 
-3.7769064e-09 9.3328824e-09 -7.5944032e+05 
5.7983330e-09 -4.4248288e-09 1.5690312e+04 
3.6479808e-09 -7.5373250e-09 -1.5882538e+05 
3.3122685e-06 4.0043685e-06 1.0713680e+05 
3.8146973e-06 -1.5497208e-06 -0.0000000e+00 
-1.6720592e-08 -4.8549170e-12 -1.7960597e+04 
1.8810589e-08 2.5344413e-08 3.2247814e+04 
-4.8121076e-09 6.9349425e-09 7.4937480e+04 
-4.4718538e-10 2.2857508e-10 -1.3323033e+06 
1.7436310e-09 1.0000506e-09 3.5898912e+04 
7.4668091e-09 -1.0265920e-09 1.2686947e+05 
-6.2697933e-09 -1.0857285e-08 1.4938902e+04 
1.9074348e-06 2.6858891e-06 -1.8904905e+06 
-2.7098625e-06 -2.3648754e-06 3.3931736e+04 
1.8682104e-09 -4.8311704e-09 4.5783410e+02 
-6.0590463e-07 -1.6358888e-06 1.6691210e+04 
1.8814221e-08 1.0865708e-08 -1.0623770e+03 
-2.5086408e-08 1.4471122e-08 6.8796548e+04 
-1.2545131e-08 7.2384899e-09 -4.6376155e+03 
4.7460818e-09 1.5822001e-10 -1.1790262e+06 
-5.3046098e-09 -6.5309549e-10 1.2162786e+03 
4.3502314e-06 9.5315860e-06 8.1010085e+06 
-1.6516966e-09 1.1337673e-09 1.1859882e+04 
-1.2104989e-13 8.5464828e-15 2.8993405e+01 
9.6625562e-08 9.2938771e-07 -1.8680548e+04 
-6.2597170e-06 -1.2224369e-05 1.0009104e+07 
1.9073486e-06 1.1920929e-07 -0.0000000e+00 
-2.0268811e-09 3.3576025e-09 -1.7662337e+02 
2.9266644e-08 -4.3437208e-08 -1.2334392e+04 
-3.2250248e-06 4.9479349e-06 -7.8211801e+03 
8.3584896e-09 7.2434192e-09 5.7070925e+02 
1.4065307e-11 -2.8976565e-08 2.5901419e+05 
6.9983662e-09 1.4277586e-08 2.9025141e+04 
1.5043557e-14 -3.0032405e-14 6.4923068e+02 
-5.7383769e-09 4.6499536e-09 -5.1353099e+05 
2.5942791e-09 -3.0539746e-09 -6.9959969e+07 
2.8681643e-06 -7.9287278e-06 -3.7110126e+04 
3.7329200e-14 -1.2252853e-13 2.8735799e+02 
-7.2727516e-15 5.1740970e-15 2.0521082e+01 
3.1138506e-06 -5.8925010e-06 2.2529420e+04 
-7.6291767e-09 -9.0748075e-09 -3.5342733e+06 
7.5298961e+07 3.5391616e+07 -0.0000000e+00 
-3.8146973e-05 -9.9182129e-05 -0.0000000e+00 
-2.3355597e-08 -3.0999317e-09 -1.8810518e+04 
-2.0718600e-09 1.8109277e-08 6.5897590e+04 