# vtk DataFile Version 4.0
vtk output
ASCII
DATASET UNSTRUCTURED_GRID
POINTS 234 float
1.0000000e+01 1.5000000e+01 0.0000000e+00 
1.0000000e+01 1.5000000e+01 2.2143423e+00 
1.0000000e+01 1.5000000e+01 4.3861338e+00 
1.0000000e+01 1.5000000e+01 6.5229933e+00 
1.0000000e+01 1.5000000e+01 8.6276635e+00 
1.0000000e+01 1.5000000e+01 1.0702748e+01 
1.0000000e+01 1.5000000e+01 1.2750726e+01 
1.0000000e+01 1.5000000e+01 1.4792272e+01 
1.0000000e+01 1.5000000e+01 1.6833817e+01 
1.0000000e+01 1.5000000e+01 1.8875363e+01 
-1.0000000e+01 1.5000000e+01 0.0000000e+00 
-1.0000000e+01 1.5000000e+01 2.2143423e+00 
-1.0000000e+01 1.5000000e+01 4.3861338e+00 
1.0000000e+01 1.5000000e+01 2.0916909e+01 
-1.0000000e+01 1.5000000e+01 6.5229933e+00 
-1.0000000e+01 1.5000000e+01 8.6276635e+00 
-1.0000000e+01 1.5000000e+01 1.0702748e+01 
1.0000000e+01 1.5000000e+01 2.2958454e+01 
-1.0000000e+01 1.5000000e+01 1.2750726e+01 
-1.0000000e+01 1.5000000e+01 1.4792272e+01 
1.0000000e+01 1.5000000e+01 2.5000000e+01 
1.0000000e+01 1.3000000e+01 2.5000000e+01 
8.0000000e+00 1.5000000e+01 2.5000000e+01 
7.8611111e+00 1.2949464e+01 2.5000000e+01 
6.0000000e+00 1.5000000e+01 2.5000000e+01 
1.0000000e+01 1.1000000e+01 2.5000000e+01 
5.6712963e+00 1.2937835e+01 2.5000000e+01 
7.1666667e+00 1.0983968e+01 2.5000000e+01 
1.0000000e+01 9.0000000e+00 2.5000000e+01 
4.0000000e+00 1.5000000e+01 2.5000000e+01 
8.0000000e+00 9.2487113e+00 2.5000000e+01 
5.0000000e+00 1.0980762e+01 2.5000000e+01 
3.6666667e+00 1.2897858e+01 2.5000000e+01 
6.0000000e+00 9.2487113e+00 2.5000000e+01 
-1.0000000e+01 1.5000000e+01 1.6833817e+01 
2.0000000e+00 1.5000000e+01 2.5000000e+01 
1.0000000e+01 7.0000000e+00 2.5000000e+01 
3.0000000e+00 1.0980762e+01 2.5000000e+01 
7.3161113e+00 7.2862359e+00 2.5000000e+01 
4.0000000e+00 9.2487113e+00 2.5000000e+01 
1.6666667e+00 1.2897858e+01 2.5000000e+01 
5.1044590e+00 7.3963497e+00 2.5000000e+01 
8.3789407e+00 5.7158811e+00 2.5000000e+01 
2.0000000e+00 9.2487113e+00 2.5000000e+01 
1.0000000e+00 1.0980762e+01 2.5000000e+01 
0.0000000e+00 1.5000000e+01 2.5000000e+01 
1.0000000e+01 5.0000000e+00 2.5000000e+01 
3.0000000e+00 7.5166605e+00 2.5000000e+01 
6.3106430e+00 5.2931695e+00 2.5000000e+01 
-3.3333333e-01 1.2897858e+01 2.5000000e+01 
4.0000000e+00 5.7846097e+00 2.5000000e+01 
8.1978673e+00 3.9529733e+00 2.5000000e+01 
-1.0000000e+01 1.5000000e+01 1.8875363e+01 
-0.0000000e+00 9.2487113e+00 2.5000000e+01 
1.0000000e+00 7.5166605e+00 2.5000000e+01 
-1.0000000e+00 1.0980762e+01 2.5000000e+01 
-2.0000000e+00 1.5000000e+01 2.5000000e+01 
1.0000000e+01 3.0000000e+00 2.5000000e+01 
4.7080627e+00 4.0319271e+00 2.5000000e+01 
2.0000000e+00 5.7846097e+00 2.5000000e+01 
-2.3993887e+00 1.2930539e+01 2.5000000e+01 
6.2296707e+00 2.7087892e+00 2.5000000e+01 
3.0000000e+00 4.0525589e+00 2.5000000e+01 
8.2679492e+00 2.0000000e+00 2.5000000e+01 
-1.0000000e+00 7.5166605e+00 2.5000000e+01 
-2.0000000e+00 9.2487113e+00 2.5000000e+01 
-0.0000000e+00 5.7846097e+00 2.5000000e+01 
-3.0000000e+00 1.0980762e+01 2.5000000e+01 
3.9914416e+00 2.4102355e+00 2.5000000e+01 
-4.0000000e+00 1.5000000e+01 2.5000000e+01 
1.0000000e+01 1.0000000e+00 2.5000000e+01 
1.0000000e+00 4.0525589e+00 2.5000000e+01 
6.7668990e+00 8.9635361e-01 2.5000000e+01 
-4.3963319e+00 1.2908899e+01 2.5000000e+01 
-1.0000000e+01 1.5000000e+01 2.0916909e+01 
2.0000000e+00 2.3205081e+00 2.5000000e+01 
-3.0000000e+00 7.5166605e+00 2.5000000e+01 
5.0109159e+00 7.5917270e-01 2.5000000e+01 
-2.0000000e+00 5.7846097e+00 2.5000000e+01 
-4.0000000e+00 9.2487113e+00 2.5000000e+01 
8.1189135e+00 -6.3535754e-02 2.5000000e+01 
-1.0000000e+00 4.0525589e+00 2.5000000e+01 
-5.0000000e+00 1.0980762e+01 2.5000000e+01 
-6.0000000e+00 1.5000000e+01 2.5000000e+01 
1.0000000e+01 -1.0000000e+00 2.5000000e+01 
3.0000000e+00 5.8845727e-01 2.5000000e+01 
-0.0000000e+00 2.3205081e+00 2.5000000e+01 
6.1040424e+00 -7.8504493e-01 2.5000000e+01 
-6.3779915e+00 1.2779056e+01 2.5000000e+01 
1.0000000e+01 -1.5000000e+01 0.0000000e+00 
1.0000000e+01 -1.5000000e+01 2.2143423e+00 
-4.0000000e+00 5.7846097e+00 2.5000000e+01 
-5.0000000e+00 7.5166605e+00 2.5000000e+01 
1.0000000e+00 5.8845727e-01 2.5000000e+01 
-3.0000000e+00 4.0525589e+00 2.5000000e+01 
-6.0000000e+00 9.2487113e+00 2.5000000e+01 
1.0000000e+01 -1.5000000e+01 4.3861338e+00 
4.0000000e+00 -1.1435935e+00 2.5000000e+01 
-6.7291881e+00 1.0851448e+01 2.5000000e+01 
-1.0000000e+01 1.5000000e+01 2.2958454e+01 
-2.0000000e+00 2.3205081e+00 2.5000000e+01 
7.6144207e+00 -2.4066339e+00 2.5000000e+01 
1.0000000e+01 -1.5000000e+01 6.5229933e+00 
-8.0000000e+00 1.5000000e+01 2.5000000e+01 
1.0000000e+01 -3.0000000e+00 2.5000000e+01 
2.0000000e+00 -1.1435935e+00 2.5000000e+01 
-1.0000000e+00 5.8845727e-01 2.5000000e+01 
5.1131055e+00 -2.7520327e+00 2.5000000e+01 
-8.2679492e+00 1.2000000e+01 2.5000000e+01 
-5.0000000e+00 4.0525589e+00 2.5000000e+01 
-6.1511338e+00 5.7803134e+00 2.5000000e+01 
1.0000000e+01 -1.5000000e+01 8.6276635e+00 
-7.1666667e+00 7.4305504e+00 2.5000000e+01 
-4.0000000e+00 2.3205081e+00 2.5000000e+01 
-8.0000000e+00 9.2487113e+00 2.5000000e+01 
-0.0000000e+00 -1.1435935e+00 2.5000000e+01 
3.0000000e+00 -2.8756443e+00 2.5000000e+01 
-3.0000000e+00 5.8845727e-01 2.5000000e+01 
8.0000000e+00 -4.6076952e+00 2.5000000e+01 
1.0000000e+01 -1.5000000e+01 1.0702748e+01 
-1.0000000e+01 1.5000000e+01 2.5000000e+01 
1.0000000e+01 -5.0000000e+00 2.5000000e+01 
6.0000000e+00 -4.6076952e+00 2.5000000e+01 
1.0000000e+00 -2.8756443e+00 2.5000000e+01 
-1.0000000e+01 1.3000000e+01 2.5000000e+01 
-2.0000000e+00 -1.1435935e+00 2.5000000e+01 
-8.1476190e+00 5.8505404e+00 2.5000000e+01 
-1.0000000e+01 1.1000000e+01 2.5000000e+01 
4.0000000e+00 -4.6076952e+00 2.5000000e+01 
-6.1265306e+00 2.3310068e+00 2.5000000e+01 
-7.5925170e+00 4.0469607e+00 2.5000000e+01 
-5.0000000e+00 5.8845727e-01 2.5000000e+01 
-1.0000000e+01 9.0000000e+00 2.5000000e+01 
1.0000000e+01 -1.5000000e+01 1.2750726e+01 
-1.0000000e+00 -2.8756443e+00 2.5000000e+01 
2.0000000e+00 -4.6076952e+00 2.5000000e+01 
-4.0000000e+00 -1.1435935e+00 2.5000000e+01 
-1.0000000e+01 7.0000000e+00 2.5000000e+01 
7.1666667e+00 -6.4497883e+00 2.5000000e+01 
5.0000000e+00 -6.3397460e+00 2.5000000e+01 
1.0000000e+01 -7.0000000e+00 2.5000000e+01 
-0.0000000e+00 -4.6076952e+00 2.5000000e+01 
-3.0000000e+00 -2.8756443e+00 2.5000000e+01 
1.0000000e+01 -1.5000000e+01 1.4792272e+01 
-8.1771429e+00 2.2070031e+00 2.5000000e+01 
-1.0000000e+01 5.0000000e+00 2.5000000e+01 
-7.1666667e+00 6.5704772e-01 2.5000000e+01 
3.0000000e+00 -6.3397460e+00 2.5000000e+01 
-6.0000000e+00 -1.1435935e+00 2.5000000e+01 
-2.0000000e+00 -4.6076952e+00 2.5000000e+01 
8.1495238e+00 -8.0753379e+00 2.5000000e+01 
1.0000000e+00 -6.3397460e+00 2.5000000e+01 
-1.0000000e+01 3.0000000e+00 2.5000000e+01 
-5.0000000e+00 -2.8756443e+00 2.5000000e+01 
6.1495238e+00 -8.0992702e+00 2.5000000e+01 
1.0000000e+01 -1.5000000e+01 1.6833817e+01 
4.0000000e+00 -8.0717968e+00 2.5000000e+01 
1.0000000e+01 -9.0000000e+00 2.5000000e+01 
-1.0000000e+00 -6.3397460e+00 2.5000000e+01 
-4.0000000e+00 -4.6076952e+00 2.5000000e+01 
-8.0000000e+00 -1.1435935e+00 2.5000000e+01 
-1.0000000e+01 1.0000000e+00 2.5000000e+01 
2.0000000e+00 -8.0717968e+00 2.5000000e+01 
-7.1666667e+00 -2.8963703e+00 2.5000000e+01 
7.5809524e+00 -9.8551047e+00 2.5000000e+01 
-3.0000000e+00 -6.3397460e+00 2.5000000e+01 
1.0000000e+01 -1.5000000e+01 1.8875363e+01 
0.0000000e+00 -8.0717968e+00 2.5000000e+01 
5.0000000e+00 -9.8038476e+00 2.5000000e+01 
-6.0000000e+00 -4.6076952e+00 2.5000000e+01 
-1.0000000e+01 -1.0000000e+00 2.5000000e+01 
3.0000000e+00 -9.8038476e+00 2.5000000e+01 
-1.0000000e+01 -1.5000000e+01 0.0000000e+00 
1.0000000e+01 -1.1000000e+01 2.5000000e+01 
-2.0000000e+00 -8.0717968e+00 2.5000000e+01 
-1.0000000e+01 -1.5000000e+01 2.2143423e+00 
-5.0000000e+00 -6.3397460e+00 2.5000000e+01 
-1.0000000e+01 -1.5000000e+01 4.3861338e+00 
1.0000000e+00 -9.8038476e+00 2.5000000e+01 
8.0000000e+00 -1.1535898e+01 2.5000000e+01 
-8.0000000e+00 -4.6076952e+00 2.5000000e+01 
1.0000000e+01 -1.5000000e+01 2.0916909e+01 
-1.0000000e+01 -1.5000000e+01 6.5229933e+00 
6.1246032e+00 -1.1536998e+01 2.5000000e+01 
-1.0000000e+01 -3.0000000e+00 2.5000000e+01 
-4.0000000e+00 -8.0717968e+00 2.5000000e+01 
-1.0000000e+00 -9.8038476e+00 2.5000000e+01 
4.0000000e+00 -1.1535898e+01 2.5000000e+01 
-1.0000000e+01 -1.5000000e+01 8.6276635e+00 
-7.1666667e+00 -6.4497883e+00 2.5000000e+01 
2.0000000e+00 -1.1535898e+01 2.5000000e+01 
1.0000000e+01 -1.3000000e+01 2.5000000e+01 
-3.0000000e+00 -9.8038476e+00 2.5000000e+01 
-1.0000000e+01 -1.5000000e+01 1.0702748e+01 
-6.1518367e+00 -8.1003560e+00 2.5000000e+01 
-1.0000000e+01 -5.0000000e+00 2.5000000e+01 
1.0000000e+01 -1.5000000e+01 2.2958454e+01 
0.0000000e+00 -1.1535898e+01 2.5000000e+01 
7.1666667e+00 -1.3223291e+01 2.5000000e+01 
5.0000000e+00 -1.3267949e+01 2.5000000e+01 
-1.0000000e+01 -1.5000000e+01 1.2750726e+01 
-5.0000000e+00 -9.8038476e+00 2.5000000e+01 
3.0000000e+00 -1.3267949e+01 2.5000000e+01 
-2.0000000e+00 -1.1535898e+01 2.5000000e+01 
-8.1518367e+00 -8.0764238e+00 2.5000000e+01 
1.0000000e+00 -1.3267949e+01 2.5000000e+01 
-1.0000000e+01 -7.0000000e+00 2.5000000e+01 
-1.0000000e+01 -1.5000000e+01 1.4792272e+01 
1.0000000e+01 -1.5000000e+01 2.5000000e+01 
-4.0000000e+00 -1.1535898e+01 2.5000000e+01 
8.0000000e+00 -1.5000000e+01 2.5000000e+01 
6.0000000e+00 -1.5000000e+01 2.5000000e+01 
-1.0000000e+00 -1.3267949e+01 2.5000000e+01 
-7.5925170e+00 -9.8605338e+00 2.5000000e+01 
4.0000000e+00 -1.5000000e+01 2.5000000e+01 
-1.0000000e+01 -1.5000000e+01 1.6833817e+01 
2.0000000e+00 -1.5000000e+01 2.5000000e+01 
-6.1265306e+00 -1.1537903e+01 2.5000000e+01 
-3.0000000e+00 -1.3267949e+01 2.5000000e+01 
-1.0000000e+01 -9.0000000e+00 2.5000000e+01 
-0.0000000e+00 -1.5000000e+01 2.5000000e+01 
-5.0000000e+00 -1.3267949e+01 2.5000000e+01 
-8.0000000e+00 -1.1535898e+01 2.5000000e+01 
-1.0000000e+01 -1.5000000e+01 1.8875363e+01 
-2.0000000e+00 -1.5000000e+01 2.5000000e+01 
-1.0000000e+01 -1.1000000e+01 2.5000000e+01 
-7.1666667e+00 -1.3223291e+01 2.5000000e+01 
-4.0000000e+00 -1.5000000e+01 2.5000000e+01 
-1.0000000e+01 -1.5000000e+01 2.0916909e+01 
-6.0000000e+00 -1.5000000e+01 2.5000000e+01 
-1.0000000e+01 -1.3000000e+01 2.5000000e+01 
-1.0000000e+01 -1.5000000e+01 2.2958454e+01 
-8.0000000e+00 -1.5000000e+01 2.5000000e+01 
-1.0000000e+01 -1.5000000e+01 2.5000000e+01 

CELLS 368 1424
3 120 124 103
3 232 229 226
3 84 70 80
3 83 103 88
3 226 229 221
3 232 226 230
3 80 70 63
3 88 103 108
3 221 229 227
3 63 70 57
3 80 63 72
3 221 227 218
3 63 57 51
3 72 63 61
3 218 227 224
3 221 218 209
3 51 57 46
3 61 63 51
3 209 218 203
3 221 209 217
3 61 51 48
3 203 218 212
3 217 209 201
3 221 217 226
3 48 51 42
3 212 218 224
3 201 209 192
3 226 217 222
3 42 51 46
3 212 224 220
3 192 209 203
3 222 217 213
3 212 220 205
3 213 217 201
3 222 213 225
3 205 220 216
3 213 201 194
3 205 216 202
3 194 201 185
3 213 194 204
3 202 216 214
3 185 201 192
3 204 194 189
3 213 204 219
3 185 192 174
3 189 194 176
3 174 192 186
3 185 174 165
3 176 194 185
3 189 176 169
3 186 192 203
3 165 174 158
3 169 176 159
3 189 169 180
3 158 174 167
3 165 158 149
3 159 176 165
3 180 169 163
3 167 174 186
3 165 176 185
3 180 163 184
3 149 158 141
3 141 158 151
3 149 141 134
3 151 158 167
3 134 141 123
3 123 141 135
3 134 123 115
3 135 141 151
3 115 123 105
3 134 115 125
3 105 123 116
3 115 105 93
3 125 115 106
3 116 123 135
3 93 105 85
3 106 115 93
3 85 105 97
3 93 85 75
3 97 105 116
3 85 97 77
3 75 85 68
3 77 97 87
3 85 77 68
3 87 97 107
3 68 77 61
3 107 97 116
3 87 107 101
3 107 116 128
3 101 107 122
3 87 101 80
3 128 116 135
3 122 107 128
3 128 135 147
3 122 128 139
3 147 135 151
3 139 128 147
3 147 151 162
3 139 147 156
3 162 151 167
3 156 147 162
3 162 167 178
3 156 162 171
3 178 167 186
3 171 162 178
3 178 186 197
3 171 178 190
3 197 186 203
3 190 178 197
3 197 203 212
3 190 197 205
3 197 212 205
3 163 169 153
3 153 169 159
3 163 153 148
3 153 159 142
3 148 153 136
3 142 159 149
3 136 153 142
3 149 159 165
3 136 142 125
3 125 142 134
3 136 125 117
3 134 142 149
3 117 125 106
3 117 106 100
3 100 106 86
3 117 100 113
3 86 106 93
3 113 100 94
3 86 93 75
3 94 100 81
3 81 100 86
3 94 81 78
3 81 86 71
3 78 81 66
3 71 86 75
3 66 81 71
3 66 71 59
3 59 71 62
3 62 71 75
3 59 62 50
3 50 62 58
3 59 50 47
3 58 62 68
3 47 50 41
3 68 62 75
3 41 50 48
3 47 41 39
3 39 41 33
3 47 39 43
3 33 41 38
3 43 39 37
3 38 41 48
3 33 38 30
3 37 39 31
3 30 38 36
3 33 30 27
3 31 39 33
3 27 30 25
3 33 27 31
3 31 27 26
3 26 27 23
3 31 26 32
3 23 27 25
3 26 23 24
3 32 26 29
3 190 205 202
3 190 202 187
3 187 202 199
3 190 187 171
3 199 202 214
3 171 187 168
3 199 214 211
3 168 187 183
3 199 211 198
3 183 187 199
3 198 211 210
3 199 198 183
3 198 210 191
3 183 198 179
3 179 198 191
3 183 179 164
3 164 173 157
3 183 164 168
3 168 164 154
3 154 164 150
3 168 154 156
3 150 164 157
3 156 154 139
3 139 154 138
3 138 154 150
3 139 138 122
3 138 150 140
3 122 138 118
3 118 138 121
3 122 118 101
3 101 118 104
3 117 113 131
3 131 113 129
3 117 131 136
3 129 113 109
3 131 129 146
3 136 131 148
3 109 113 94
3 129 109 130
3 146 129 144
3 148 131 146
3 109 94 91
3 130 109 110
3 144 129 130
3 91 94 78
3 130 110 126
3 91 78 76
3 126 110 112
3 76 78 64
3 91 76 92
3 112 110 92
3 64 78 66
3 92 76 79
3 92 110 91
3 79 76 65
3 92 79 95
3 91 110 109
3 79 65 67
3 95 79 82
3 67 65 55
3 82 79 67
3 95 82 98
3 55 65 53
3 98 82 88
3 95 98 114
3 53 65 64
3 114 108 127
3 95 114 112
3 64 65 76
3 112 114 137
3 95 112 92
3 148 146 160
3 160 146 161
3 148 160 163
3 163 160 184
3 82 67 73
3 73 67 60
3 82 73 88
3 60 67 55
3 73 60 69
3 60 55 49
3 49 55 44
3 60 49 56
3 44 55 53
3 49 44 40
3 44 53 43
3 40 44 37
3 49 40 45
3 44 43 37
3 40 37 32
3 32 37 31
3 40 32 35
3 43 53 54
3 54 53 64
3 43 54 47
3 54 64 66
3 47 54 59
3 54 66 59
3 170 184 160
3 20 22 21
3 210 208 191
3 226 222 230
3 137 145 126
3 72 61 77
3 72 77 87
3 36 28 30
3 168 156 171
3 219 225 213
3 157 140 150
3 35 45 40
3 189 180 206
3 127 132 114
3 42 46 36
3 42 36 38
3 42 38 48
3 144 130 152
3 83 88 73
3 204 189 206
3 195 206 180
3 24 29 26
3 191 173 179
3 152 161 144
3 25 21 23
3 230 233 232
3 121 104 118
3 56 69 60
3 130 126 145
3 124 127 108
3 108 114 98
3 108 98 88
3 108 103 124
3 80 72 87
3 80 101 84
3 84 101 104
3 126 112 137
3 184 195 180
3 22 24 23
3 145 152 130
3 61 48 58
3 58 48 50
3 61 58 68
3 28 25 30
3 225 230 222
3 140 121 138
3 45 56 49
3 132 137 114
3 146 144 161
3 206 219 204
3 29 35 32
3 173 164 179
3 161 170 160
3 69 83 73
3 23 21 22
2 233 231
2 231 228
2 228 223
2 223 215
2 215 207
2 207 200
2 200 193
2 193 188
2 188 182
2 182 177
2 177 175
2 175 172
2 120 99
2 99 74
2 74 52
2 52 34
2 34 19
2 19 18
2 18 16
2 16 15
2 15 14
2 14 12
2 12 11
2 11 10
2 20 17
2 17 13
2 13 9
2 9 8
2 8 7
2 7 6
2 6 5
2 5 4
2 4 3
2 3 2
2 2 1
2 1 0
2 208 196
2 196 181
2 181 166
2 166 155
2 155 143
2 143 133
2 133 119
2 119 111
2 111 102
2 102 96
2 96 90
2 90 89

CELL_TYPES 368
5
5
5
5
5
5
5
5
5
5
5
5
5
5
5
5
5
5
5
5
5
5
5
5
5
5
5
5
5
5
5
5
5
5
5
5
5
5
5
5
5
5
5
5
5
5
5
5
5
5
5
5
5
5
5
5
5
5
5
5
5
5
5
5
5
5
5
5
5
5
5
5
5
5
5
5
5
5
5
5
5
5
5
5
5
5
5
5
5
5
5
5
5
5
5
5
5
5
5
5
5
5
5
5
5
5
5
5
5
5
5
5
5
5
5
5
5
5
5
5
5
5
5
5
5
5
5
5
5
5
5
5
5
5
5
5
5
5
5
5
5
5
5
5
5
5
5
5
5
5
5
5
5
5
5
5
5
5
5
5
5
5
5
5
5
5
5
5
5
5
5
5
5
5
5
5
5
5
5
5
5
5
5
5
5
5
5
5
5
5
5
5
5
5
5
5
5
5
5
5
5
5
5
5
5
5
5
5
5
5
5
5
5
5
5
5
5
5
5
5
5
5
5
5
5
5
5
5
5
5
5
5
5
5
5
5
5
5
5
5
5
5
5
5
5
5
5
5
5
5
5
5
5
5
5
5
5
5
5
5
5
5
5
5
5
5
5
5
5
5
5
5
5
5
5
5
5
5
5
5
5
5
5
5
5
5
5
5
5
5
5
5
5
5
5
5
5
5
5
5
5
5
5
5
5
5
5
5
5
5
5
5
5
5
5
5
5
5
5
5
3
3
3
3
3
3
3
3
3
3
3
3
3
3
3
3
3
3
3
3
3
3
3
3
3
3
3
3
3
3
3
3
3
3
3
3
3
3
3
3
3
3
3
3
3
3
3
3
POINT_DATA 234
FIELD FieldData 4
DISPLACEMENT 3 234  float
0.0000000e+00 0.0000000e+00 0.0000000e+00 
-1.6847261e-01 4.0177151e-01 0.0000000e+00 
-3.3230691e-01 7.9206117e-01 0.0000000e+00 
-4.9081381e-01 1.1688449e+00 0.0000000e+00 
-6.4304700e-01 1.5295191e+00 0.0000000e+00 
-7.8814395e-01 1.8717087e+00 0.0000000e+00 
-9.2530963e-01 2.1932225e+00 0.0000000e+00 
-1.0549298e+00 2.4946240e+00 0.0000000e+00 
-1.1763076e+00 2.7738956e+00 0.0000000e+00 
-1.2883057e+00 3.0279830e+00 0.0000000e+00 
0.0000000e+00 0.0000000e+00 0.0000000e+00 
-1.4176317e-01 1.6863837e-02 0.0000000e+00 
-2.7939198e-01 3.3181529e-02 0.0000000e+00 
-1.3897863e+00 3.2538321e+00 0.0000000e+00 
-4.1209701e-01 4.8809964e-02 0.0000000e+00 
-5.3889118e-01 6.3586928e-02 0.0000000e+00 
-6.5887352e-01 7.7364110e-02 0.0000000e+00 
-1.4796120e+00 3.4483885e+00 0.0000000e+00 
-7.7121257e-01 9.0004458e-02 0.0000000e+00 
-8.7603681e-01 1.0147721e-01 0.0000000e+00 
-1.5566451e+00 3.6085981e+00 0.0000000e+00 
-1.2093488e+00 3.6389826e+00 0.0000000e+00 
-1.5262606e+00 3.2613017e+00 0.0000000e+00 
-1.1680787e+00 3.2683362e+00 0.0000000e+00 
-1.4958761e+00 2.9140054e+00 0.0000000e+00 
-8.6205242e-01 3.6693671e+00 0.0000000e+00 
-1.1327911e+00 2.8882555e+00 0.0000000e+00 
-8.1622387e-01 3.1776074e+00 0.0000000e+00 
-5.1475607e-01 3.6997516e+00 0.0000000e+00 
-1.4654917e+00 2.5667090e+00 0.0000000e+00 
-5.2755984e-01 3.3486767e+00 0.0000000e+00 
-7.8275057e-01 2.8014184e+00 0.0000000e+00 
-1.0953945e+00 2.5407625e+00 0.0000000e+00 
-4.9717535e-01 3.0013804e+00 0.0000000e+00 
-9.7256401e-01 1.1164331e-01 0.0000000e+00 
-1.4351072e+00 2.2194127e+00 0.0000000e+00 
-1.6745971e-01 3.7301360e+00 0.0000000e+00 
-7.5236607e-01 2.4541221e+00 0.0000000e+00 
-1.7638975e-01 3.2597351e+00 0.0000000e+00 
-4.6679085e-01 2.6540840e+00 0.0000000e+00 
-1.0650100e+00 2.1934662e+00 0.0000000e+00 
-1.6191085e-01 2.8740128e+00 0.0000000e+00 
8.0152733e-02 3.4681507e+00 0.0000000e+00 
-4.3640636e-01 2.3067876e+00 0.0000000e+00 
-7.2198158e-01 2.1068257e+00 0.0000000e+00 
-1.4047227e+00 1.8721163e+00 0.0000000e+00 
1.7983664e-01 3.7605205e+00 0.0000000e+00 
-1.5083114e-01 2.5067496e+00 0.0000000e+00 
1.8497792e-01 3.1154165e+00 0.0000000e+00 
-1.0346255e+00 1.8461698e+00 0.0000000e+00 
1.3474408e-01 2.7067115e+00 0.0000000e+00 
3.8902937e-01 3.4634902e+00 0.0000000e+00 
-1.0596491e+00 1.2032243e-01 0.0000000e+00 
-4.0602186e-01 1.9594913e+00 0.0000000e+00 
-1.2044664e-01 2.1594532e+00 0.0000000e+00 
-6.9159708e-01 1.7595294e+00 0.0000000e+00 
-1.3743382e+00 1.5248199e+00 0.0000000e+00 
5.2713300e-01 3.7909050e+00 0.0000000e+00 
4.2833716e-01 2.8562925e+00 0.0000000e+00 
1.6512857e-01 2.3594151e+00 0.0000000e+00 
-1.0089125e+00 1.4869066e+00 0.0000000e+00 
6.3498100e-01 3.1406184e+00 0.0000000e+00 
4.5070379e-01 2.5593771e+00 0.0000000e+00 
7.2709492e-01 3.5053298e+00 0.0000000e+00 
-9.0062151e-02 1.8121569e+00 0.0000000e+00 
-3.7563737e-01 1.6121949e+00 0.0000000e+00 
1.9551307e-01 2.0121188e+00 0.0000000e+00 
-6.6121259e-01 1.4122330e+00 0.0000000e+00 
7.2082803e-01 2.7564897e+00 0.0000000e+00 
-1.3439537e+00 1.1775236e+00 0.0000000e+00 
8.7442935e-01 3.8212895e+00 0.0000000e+00 
4.8108829e-01 2.2120807e+00 0.0000000e+00 
9.4154543e-01 3.2614421e+00 0.0000000e+00 
-9.7481661e-01 1.1404698e+00 0.0000000e+00 
-1.1361468e+00 1.2733423e-01 0.0000000e+00 
7.6666351e-01 2.4120426e+00 0.0000000e+00 
-5.9677657e-02 1.4648605e+00 0.0000000e+00 
9.9204397e-01 2.9586029e+00 0.0000000e+00 
2.2589756e-01 1.6648224e+00 0.0000000e+00 
-3.4525288e-01 1.2648986e+00 0.0000000e+00 
1.0876883e+00 3.5107998e+00 0.0000000e+00 
5.1147278e-01 1.8647843e+00 0.0000000e+00 
-6.3082810e-01 1.0649367e+00 0.0000000e+00 
-1.3135692e+00 8.3022723e-01 0.0000000e+00 
1.2217257e+00 3.8516740e+00 0.0000000e+00 
1.0522387e+00 2.6120045e+00 0.0000000e+00 
7.9704800e-01 2.0647463e+00 0.0000000e+00 
1.2435875e+00 3.1718824e+00 0.0000000e+00 
-9.2216380e-01 7.9833082e-01 0.0000000e+00 
0.0000000e+00 0.0000000e+00 0.0000000e+00 
4.1290960e-01 4.0722435e-01 0.0000000e+00 
2.5628206e-01 1.3175261e+00 0.0000000e+00 
-2.9293163e-02 1.1175641e+00 0.0000000e+00 
1.0826232e+00 2.2647082e+00 0.0000000e+00 
5.4185728e-01 1.5174880e+00 0.0000000e+00 
-3.1486838e-01 9.1760223e-01 0.0000000e+00 
8.1379260e-01 8.0446089e-01 0.0000000e+00 
1.3378139e+00 2.8119665e+00 0.0000000e+00 
-5.8210271e-01 7.6663086e-01 0.0000000e+00 
-1.2009123e+00 1.3249837e-01 0.0000000e+00 
8.2743250e-01 1.7174499e+00 0.0000000e+00 
1.5022274e+00 3.4587925e+00 0.0000000e+00 
1.2003636e+00 1.1911522e+00 0.0000000e+00 
-1.2831847e+00 4.8293087e-01 0.0000000e+00 
1.5690221e+00 3.8820585e+00 0.0000000e+00 
1.3681984e+00 2.4646701e+00 0.0000000e+00 
1.1130077e+00 1.9174118e+00 0.0000000e+00 
1.6002059e+00 3.0296910e+00 0.0000000e+00 
-7.5816941e-01 4.8197873e-01 0.0000000e+00 
5.7224177e-01 1.1701916e+00 0.0000000e+00 
2.8970865e-01 9.4405088e-01 0.0000000e+00 
1.5697604e+00 1.5660197e+00 0.0000000e+00 
1.8576231e-02 7.4263464e-01 0.0000000e+00 
8.5781699e-01 1.3701536e+00 0.0000000e+00 
-2.8448389e-01 5.7030587e-01 0.0000000e+00 
1.3985829e+00 2.1173738e+00 0.0000000e+00 
1.6537737e+00 2.6646320e+00 0.0000000e+00 
1.1433922e+00 1.5701155e+00 0.0000000e+00 
1.8785799e+00 3.5591867e+00 0.0000000e+00 
1.9193704e+00 1.9279051e+00 0.0000000e+00 
-1.2528002e+00 1.3563452e-01 0.0000000e+00 
1.9163184e+00 3.9124430e+00 0.0000000e+00 
1.9089644e+00 3.2118903e+00 0.0000000e+00 
1.6841582e+00 2.3173357e+00 0.0000000e+00 
-9.0550384e-01 1.6601901e-01 0.0000000e+00 
1.4289674e+00 1.7700774e+00 0.0000000e+00 
3.0784496e-01 5.9629794e-01 0.0000000e+00 
-5.5820748e-01 1.9640351e-01 0.0000000e+00 
1.9393489e+00 2.8645940e+00 0.0000000e+00 
8.8830068e-01 1.0007259e+00 0.0000000e+00 
6.1260004e-01 7.2009083e-01 0.0000000e+00 
1.1737767e+00 1.2228191e+00 0.0000000e+00 
-2.1091113e-01 2.2678800e-01 0.0000000e+00 
2.2467826e+00 2.2757456e+00 0.0000000e+00 
1.7145426e+00 1.9700393e+00 0.0000000e+00 
1.9697334e+00 2.5172976e+00 0.0000000e+00 
1.4593519e+00 1.4227810e+00 0.0000000e+00 
1.3638523e-01 2.5717249e-01 0.0000000e+00 
2.2111162e+00 3.4424654e+00 0.0000000e+00 
2.2249241e+00 3.0645559e+00 0.0000000e+00 
2.2636148e+00 3.9428275e+00 0.0000000e+00 
2.0001179e+00 2.1700012e+00 0.0000000e+00 
1.7449271e+00 1.6227430e+00 0.0000000e+00 
2.5523843e+00 2.6115109e+00 0.0000000e+00 
9.4098712e-01 6.4652471e-01 0.0000000e+00 
4.8368158e-01 2.8755699e-01 0.0000000e+00 
1.1947826e+00 8.4553936e-01 0.0000000e+00 
2.2553086e+00 2.7172595e+00 0.0000000e+00 
1.4897364e+00 1.0754847e+00 0.0000000e+00 
2.0305024e+00 1.8227049e+00 0.0000000e+00 
2.4784581e+00 3.6378325e+00 0.0000000e+00 
2.2856931e+00 2.3699632e+00 0.0000000e+00 
8.3097794e-01 3.1794148e-01 0.0000000e+00 
1.7753116e+00 1.2754466e+00 0.0000000e+00 
2.5129984e+00 3.2908997e+00 0.0000000e+00 
2.8339102e+00 2.9345528e+00 0.0000000e+00 
2.5408838e+00 2.9172214e+00 0.0000000e+00 
2.6109111e+00 3.9732120e+00 0.0000000e+00 
2.3160776e+00 2.0226668e+00 0.0000000e+00 
2.0608869e+00 1.4754085e+00 0.0000000e+00 
1.5201209e+00 7.2818833e-01 0.0000000e+00 
1.1782743e+00 3.4832598e-01 0.0000000e+00 
2.5712683e+00 2.5699251e+00 0.0000000e+00 
1.8118272e+00 8.9952377e-01 0.0000000e+00 
2.7961493e+00 3.5661398e+00 0.0000000e+00 
2.3464621e+00 1.6753705e+00 0.0000000e+00 
3.0880376e+00 3.2431152e+00 0.0000000e+00 
2.6016528e+00 2.2226287e+00 0.0000000e+00 
2.8264590e+00 3.1171834e+00 0.0000000e+00 
2.0912713e+00 1.1281122e+00 0.0000000e+00 
1.5255706e+00 3.7871047e-01 0.0000000e+00 
2.8568435e+00 2.7698870e+00 0.0000000e+00 
0.0000000e+00 0.0000000e+00 0.0000000e+00 
2.9582075e+00 4.0035965e+00 0.0000000e+00 
2.6320373e+00 1.8753324e+00 0.0000000e+00 
3.9917217e-01 7.9344622e-02 0.0000000e+00 
2.3768466e+00 1.3280741e+00 0.0000000e+00 
7.8844307e-01 1.5592997e-01 0.0000000e+00 
2.8872280e+00 2.4225907e+00 0.0000000e+00 
3.0816498e+00 3.6644416e+00 0.0000000e+00 
2.1216558e+00 7.8081582e-01 0.0000000e+00 
3.3114436e+00 3.5354421e+00 0.0000000e+00 
1.1671658e+00 2.2891094e-01 0.0000000e+00 
3.1103322e+00 3.3387991e+00 0.0000000e+00 
1.8728670e+00 4.0909496e-01 0.0000000e+00 
2.6624218e+00 1.5280360e+00 0.0000000e+00 
2.9176125e+00 2.0752943e+00 0.0000000e+00 
3.1424187e+00 2.9698489e+00 0.0000000e+00 
1.5339957e+00 2.9736797e-01 0.0000000e+00 
2.4288718e+00 9.5350817e-01 0.0000000e+00 
3.1728032e+00 2.6225526e+00 0.0000000e+00 
3.3055038e+00 4.0339810e+00 0.0000000e+00 
2.9479970e+00 1.7279979e+00 0.0000000e+00 
1.8877133e+00 3.6045966e-01 0.0000000e+00 
2.7000723e+00 1.1548074e+00 0.0000000e+00 
2.2201634e+00 4.3947946e-01 0.0000000e+00 
3.5008054e+00 3.8097775e+00 0.0000000e+00 
3.2031877e+00 2.2752562e+00 0.0000000e+00 
3.3873226e+00 3.5453701e+00 0.0000000e+00 
3.4279940e+00 3.1698108e+00 0.0000000e+00 
2.2271990e+00 4.1740802e-01 0.0000000e+00 
2.9783815e+00 1.3807016e+00 0.0000000e+00 
3.4583785e+00 2.8225145e+00 0.0000000e+00 
3.2335722e+00 1.9279599e+00 0.0000000e+00 
2.7263010e+00 8.0714743e-01 0.0000000e+00 
3.4887630e+00 2.4752181e+00 0.0000000e+00 
2.5674597e+00 4.6986395e-01 0.0000000e+00 
2.5542894e+00 4.6790760e-01 0.0000000e+00 
3.6528002e+00 4.0643655e+00 0.0000000e+00 
3.2639567e+00 1.5806635e+00 0.0000000e+00 
3.6831847e+00 3.7170691e+00 0.0000000e+00 
3.7135692e+00 3.3697728e+00 0.0000000e+00 
3.5191474e+00 2.1279218e+00 0.0000000e+00 
3.0276111e+00 9.3137692e-01 0.0000000e+00 
3.7439537e+00 3.0224764e+00 0.0000000e+00 
2.8682552e+00 5.1114359e-01 0.0000000e+00 
3.7743382e+00 2.6751801e+00 0.0000000e+00 
3.2966116e+00 1.2114258e+00 0.0000000e+00 
3.5495319e+00 1.7806254e+00 0.0000000e+00 
2.9147561e+00 5.0024845e-01 0.0000000e+00 
3.8047227e+00 2.3278837e+00 0.0000000e+00 
3.5799164e+00 1.4333291e+00 0.0000000e+00 
3.3247257e+00 8.8607080e-01 0.0000000e+00 
3.1672851e+00 5.4611349e-01 0.0000000e+00 
3.8351072e+00 1.9805873e+00 0.0000000e+00 
3.2620524e+00 5.3063294e-01 0.0000000e+00 
3.6050782e+00 1.0564129e+00 0.0000000e+00 
3.8654917e+00 1.6332910e+00 0.0000000e+00 
3.4495676e+00 5.7181484e-01 0.0000000e+00 
3.8958761e+00 1.2859946e+00 0.0000000e+00 
3.6093488e+00 5.6101743e-01 0.0000000e+00 
3.7132914e+00 5.8724514e-01 0.0000000e+00 
3.9262606e+00 9.3869828e-01 0.0000000e+00 
3.9566451e+00 5.9140193e-01 0.0000000e+00 
REACTION 3 234  float
2.7660193e+07 -7.4265461e+07 -0.0000000e+00 
-1.9073486e-05 -2.2888184e-05 -0.0000000e+00 
-1.1444092e-05 -1.8310547e-04 -0.0000000e+00 
-2.2888184e-05 1.5258789e-05 -0.0000000e+00 
-7.6293945e-06 -5.3405762e-05 -0.0000000e+00 
5.3405762e-05 1.5258789e-05 -0.0000000e+00 
-5.7220459e-05 6.1035156e-05 -0.0000000e+00 
1.6021729e-04 -3.6621094e-04 -0.0000000e+00 
-5.7220459e-05 2.6702881e-04 -0.0000000e+00 
6.8664551e-05 -3.2043457e-04 -0.0000000e+00 
2.7843932e+07 -4.3849645e+06 -0.0000000e+00 
-0.0000000e+00 9.5367432e-07 -0.0000000e+00 
1.4305115e-04 -1.8358231e-05 -0.0000000e+00 
1.5068054e-04 -3.0517578e-04 -0.0000000e+00 
3.4332275e-05 3.3378601e-06 -0.0000000e+00 
-1.7166138e-05 -3.0994415e-06 -0.0000000e+00 
2.6702881e-05 -2.6226044e-06 -0.0000000e+00 
-5.1498413e-05 1.3351440e-04 -0.0000000e+00 
-5.7220459e-06 3.3378601e-06 -0.0000000e+00 
1.9073486e-06 -6.9141388e-06 -0.0000000e+00 
-2.7656170e+07 7.4262644e+07 7.6290381e+08 
-3.3020674e+03 -7.7746217e+02 -1.3241668e+09 
-4.4697441e+02 3.4063287e+03 5.1703477e+08 
-1.7093095e+02 1.6152605e+02 -5.5426379e+06 
-1.4622934e+00 4.0604405e+01 -1.4927549e+08 
-8.3723157e+01 -2.4997893e+01 2.6664266e+08 
-2.6631492e+00 2.5544011e+00 -4.3031594e+07 
-3.1030431e+00 6.8665363e+00 -2.2615675e+07 
-3.4183314e+00 -4.5098288e+00 -3.7508136e+07 
8.6645554e-02 1.0290547e+00 2.4348675e+07 
-6.1327764e+00 3.2556306e+00 -5.9963781e+06 
-6.7897303e-02 7.1885300e-02 1.2796971e+07 
-9.8008171e-02 8.5127404e-02 7.2290892e+06 
-5.8078103e-02 4.2607398e-02 5.1834772e+05 
6.6757202e-05 9.5367432e-07 -0.0000000e+00 
2.4362781e-03 3.7900962e-02 -5.1083662e+06 
-1.0701307e-01 -1.9332986e-02 8.3276673e+06 
-1.0292199e-03 9.4971454e-04 -8.7964603e+05 
-2.5062072e-02 7.9737861e-03 -4.5214610e+06 
-1.6938670e-03 2.6322618e-03 -3.3351275e+05 
-2.9084290e-03 1.6990116e-03 -1.0528367e+06 
-2.2372975e-03 1.2377340e-03 -1.4225200e+06 
-3.1608725e-03 1.8793498e-03 2.0357587e+05 
9.3470966e-05 -4.6236692e-04 1.8021434e+04 
-3.2462799e-04 -9.4947549e-05 1.6536888e+05 
3.7621007e-04 1.9147726e-03 6.6948683e+05 
-1.9804712e-03 -1.4970532e-03 -2.8250085e+05 
-2.9429777e-04 -1.8582486e-04 7.7146122e+04 
-6.4897444e-05 7.6987282e-04 7.5826051e+05 
-1.6662585e-04 -1.1229784e-03 -2.9294848e+04 
-3.2135896e-04 6.1750391e-04 1.5754612e+05 
-4.3691156e-05 7.6998610e-05 -1.0889224e+05 
4.0054321e-05 -1.1205673e-05 -0.0000000e+00 
4.7515506e-05 -3.4971000e-04 1.7585784e+04 
2.6299835e-04 2.9120433e-04 -3.2586998e+04 
-3.7963028e-05 1.2673205e-04 -6.0648620e+04 
3.2134780e-03 -1.3837706e-03 1.1972814e+06 
-2.1530608e-04 -6.1225821e-05 -3.5888308e+04 
1.5080130e-04 -4.9387393e-04 -1.2733981e+05 
-3.2470890e-05 8.6277162e-04 -1.3238370e+04 
-6.7533988e-04 -8.9479540e-03 1.7080119e+06 
1.0640245e-04 -1.5896478e-04 -3.3852812e+04 
-1.8630921e-04 -7.2429297e-04 -5.7480286e+02 
3.8470191e-04 8.1487367e-05 -1.6681416e+04 
-1.2497751e-04 5.4319292e-04 2.2225572e+03 
2.3568547e-04 -1.8902249e-04 -7.5123101e+04 
8.1097686e-05 -1.2321907e-04 4.8831084e+03 
-3.2019862e-03 -2.4497484e-03 1.0822764e+06 
-4.2108474e-04 3.1453180e-04 -1.1273003e+03 
1.1876839e-01 -1.0012490e-01 -7.2170408e+06 
-3.2067315e-04 -1.9626953e-05 -1.1398620e+04 
6.5173484e-05 -3.3090705e-04 -2.8525101e+02 
-2.0168588e-04 3.3446470e-05 1.8382643e+04 
-1.1327915e-01 -1.3362884e-01 -9.0044481e+06 
8.3923340e-05 2.5033951e-06 -0.0000000e+00 
3.2773347e-04 3.4823924e-04 1.6698202e+02 
-1.7558354e-04 -2.1881352e-04 1.3513324e+04 
4.3902197e-04 -1.3021438e-04 8.1192630e+03 
-1.7312660e-04 3.0518310e-04 -1.0348717e+03 
-3.8826588e-04 -6.8106882e-04 -3.1395331e+05 
3.2603964e-04 -2.1607068e-04 -3.0363041e+04 
1.5369301e-04 2.5180464e-05 -6.8762729e+02 
-6.2213476e-03 -3.1928563e-03 7.2023179e+05 
6.0348483e+00 -5.5504754e+00 6.2935029e+07 
-4.2262784e-04 -1.3448129e-04 3.3673217e+04 
-3.7360111e-04 1.4093681e-04 -3.4665044e+02 
-8.3024929e-05 -5.3694422e-06 -1.2263272e+01 
-9.6975990e-05 3.2481746e-04 -2.4075150e+04 
-5.3045831e+00 -8.5169053e+00 7.0951965e+05 
-8.0795598e+07 -4.2698409e+07 -0.0000000e+00 
-1.5258789e-05 -7.6293945e-06 -0.0000000e+00 
-2.4109290e-04 7.2034314e-04 2.0395544e+04 